DF-ISE text

Info {
  version   = 1.0
  type      = xyplot
  datasets  = [
    "time"
    "source OuterVoltage" "source InnerVoltage" "source QuasiFermiPotential" "source DisplacementCurrent" "source eCurrent"
    "source hCurrent" "source TotalCurrent" "source Charge" "drain OuterVoltage" "drain InnerVoltage"
    "drain QuasiFermiPotential" "drain DisplacementCurrent" "drain eCurrent" "drain hCurrent" "drain TotalCurrent"
    "drain Charge" "gate OuterVoltage" "gate InnerVoltage" "gate QuasiFermiPotential" "gate DisplacementCurrent"
    "gate eCurrent" "gate hCurrent" "gate TotalCurrent" "gate Charge" ]
  functions = [
    Time
    OuterVoltage InnerVoltage QuasiFermiPotential DisplacementCurrent eCurrent
    hCurrent TotalCurrent Charge OuterVoltage InnerVoltage
    QuasiFermiPotential DisplacementCurrent eCurrent hCurrent TotalCurrent
    Charge OuterVoltage InnerVoltage QuasiFermiPotential DisplacementCurrent
    eCurrent hCurrent TotalCurrent Charge ]
}

Data {
      3.12500000000000E-02
      0.00000000000000E+00   0.00000000000000E+00   0.00000000000000E+00   0.00000000000000E+00  -2.44458208345109E-05
     -4.84345344536698E-15  -2.44458208393543E-05  -6.62444937742701E-15   3.12500000000000E+00   3.12500000000000E+00
      0.00000000000000E+00   0.00000000000000E+00   2.44458208391822E-05   4.29511868808396E-18   2.44458208391865E-05
      3.42770643730909E-16   4.00000000000000E+00   4.00000000000000E+00   0.00000000000000E+00   0.00000000000000E+00
      0.00000000000000E+00   0.00000000000000E+00   0.00000000000000E+00   6.28223508850033E-15
      6.25000000000000E-02
      0.00000000000000E+00   0.00000000000000E+00   0.00000000000000E+00   0.00000000000000E+00  -3.96324483142751E-05
     -5.59621994654493E-15  -3.96324483198713E-05  -6.30371952072486E-15   6.25000000000000E+00   6.25000000000000E+00
      0.00000000000000E+00   0.00000000000000E+00   3.96324483198685E-05   4.92504948476886E-18   3.96324483198734E-05
      7.64736573403482E-16   4.00000000000000E+00   4.00000000000000E+00   0.00000000000000E+00   0.00000000000000E+00
      0.00000000000000E+00   0.00000000000000E+00   0.00000000000000E+00   5.53953291412799E-15
      1.10500000000000E-01
      0.00000000000000E+00   0.00000000000000E+00   0.00000000000000E+00   0.00000000000000E+00  -5.47565708348760E-05
     -6.04463638759107E-15  -5.47565708409207E-05  -5.77072301596892E-15   1.10500000000000E+01   1.10500000000000E+01
      0.00000000000000E+00   0.00000000000000E+00   5.47565708409134E-05   5.79762255878063E-18   5.47565708409192E-05
      1.25495808654699E-15   4.00000000000000E+00   4.00000000000000E+00   0.00000000000000E+00   0.00000000000000E+00
      0.00000000000000E+00   0.00000000000000E+00   0.00000000000000E+00   4.51631267806132E-15
      1.70020000000000E-01
      0.00000000000000E+00   0.00000000000000E+00   0.00000000000000E+00   0.00000000000000E+00  -6.58822867260689E-05
     -6.06308230238196E-15  -6.58822867321320E-05  -5.17800129171258E-15   1.70020000000000E+01   1.70020000000000E+01
      0.00000000000000E+00   0.00000000000000E+00   6.58822867320931E-05   7.63943913991892E-18   6.58822867321008E-05
      1.75150859899962E-15   4.00000000000000E+00   4.00000000000000E+00   0.00000000000000E+00   0.00000000000000E+00
      0.00000000000000E+00   0.00000000000000E+00   0.00000000000000E+00   3.42719270477290E-15
      1.77460000000000E-01
      0.00000000000000E+00   0.00000000000000E+00   0.00000000000000E+00   0.00000000000000E+00  -6.69046624250546E-05
     -6.04464249368466E-15  -6.69046624310992E-05  -5.11665172047065E-15   1.77460000000000E+01   1.77460000000000E+01
      0.00000000000000E+00   0.00000000000000E+00   6.69046624309765E-05   8.00521623425919E-18   6.69046624309845E-05
      1.81284243532925E-15   4.00000000000000E+00   4.00000000000000E+00   0.00000000000000E+00   0.00000000000000E+00
      0.00000000000000E+00   0.00000000000000E+00   0.00000000000000E+00   3.30454428985542E-15
      1.88411680000000E-01
      0.00000000000000E+00   0.00000000000000E+00   0.00000000000000E+00   0.00000000000000E+00  -6.82825147261306E-05
     -6.01051046206349E-15  -6.82825147321411E-05  -5.03681824480713E-15   1.88411680000000E+01   1.88411680000000E+01
      0.00000000000000E+00   0.00000000000000E+00   6.82825147320283E-05   8.62483853346083E-18   6.82825147320369E-05
      1.90414988099957E-15   4.00000000000000E+00   4.00000000000000E+00   0.00000000000000E+00   0.00000000000000E+00
      0.00000000000000E+00   0.00000000000000E+00   0.00000000000000E+00   3.13346017791988E-15
      2.05583914240000E-01
      0.00000000000000E+00   0.00000000000000E+00   0.00000000000000E+00   0.00000000000000E+00  -7.01478883825453E-05
     -5.93324431005599E-15  -7.01478883884785E-05  -4.94077463099928E-15   2.05583914240000E+01   2.05583914240000E+01
      0.00000000000000E+00   0.00000000000000E+00   7.01478883883689E-05   9.85111099110901E-18   7.01478883883787E-05
      2.05013312600782E-15   4.00000000000000E+00   4.00000000000000E+00   0.00000000000000E+00   0.00000000000000E+00
      0.00000000000000E+00   0.00000000000000E+00   0.00000000000000E+00   2.89153397569348E-15
      2.18703501199360E-01
      0.00000000000000E+00   0.00000000000000E+00   0.00000000000000E+00   0.00000000000000E+00  -7.13706710360449E-05
     -5.86923988644367E-15  -7.13706710419141E-05  -4.89495723652169E-15   2.18703501199360E+01   2.18703501199360E+01
      0.00000000000000E+00   0.00000000000000E+00   7.13706710417854E-05   1.10885895292427E-17   7.13706710417965E-05
      2.16059843089488E-15   4.00000000000000E+00   4.00000000000000E+00   0.00000000000000E+00   0.00000000000000E+00
      0.00000000000000E+00   0.00000000000000E+00   0.00000000000000E+00   2.73533743791992E-15
      2.38225446594888E-01
      0.00000000000000E+00   0.00000000000000E+00   0.00000000000000E+00   0.00000000000000E+00  -7.29722248874819E-05
     -5.74358021303635E-15  -7.29722248932255E-05  -4.85930770644622E-15   2.38225446594888E+01   2.38225446594888E+01
      0.00000000000000E+00   0.00000000000000E+00   7.29722248930701E-05   1.36638244539001E-17   7.29722248930838E-05
      2.31532256272163E-15   4.00000000000000E+00   4.00000000000000E+00   0.00000000000000E+00   0.00000000000000E+00
      0.00000000000000E+00   0.00000000000000E+00   0.00000000000000E+00   2.54510720402449E-15
      2.67430276906597E-01
      0.00000000000000E+00   0.00000000000000E+00   0.00000000000000E+00   0.00000000000000E+00  -7.51053172691365E-05
     -5.50812999768028E-15  -7.51053172746447E-05  -4.84478085112381E-15   2.67430276906597E+01   2.67430276906597E+01
      0.00000000000000E+00   0.00000000000000E+00   7.51053172744745E-05   1.93138896368167E-17   7.51053172744939E-05
      2.53091660264312E-15   4.00000000000000E+00   4.00000000000000E+00   0.00000000000000E+00   0.00000000000000E+00
      0.00000000000000E+00   0.00000000000000E+00   0.00000000000000E+00   2.31523419300378E-15
      3.05513375633066E-01
      0.00000000000000E+00   0.00000000000000E+00   0.00000000000000E+00   0.00000000000000E+00  -7.75673094501310E-05
     -5.11691786755743E-15  -7.75673094552479E-05  -4.86161410515836E-15   3.05513375633066E+01   3.05513375633066E+01
      0.00000000000000E+00   0.00000000000000E+00   7.75673094550990E-05   2.99916200338315E-17   7.75673094551290E-05
      2.79766217577980E-15   4.00000000000000E+00   4.00000000000000E+00   0.00000000000000E+00   0.00000000000000E+00
      0.00000000000000E+00   0.00000000000000E+00   0.00000000000000E+00   2.06569324039183E-15
      3.45729127888218E-01
      0.00000000000000E+00   0.00000000000000E+00   0.00000000000000E+00   0.00000000000000E+00  -7.99087838424614E-05
     -4.68712679367279E-15  -7.99087838471486E-05  -4.90266511642802E-15   3.45729127888218E+01   3.45729127888218E+01
      0.00000000000000E+00   0.00000000000000E+00   7.99087838470629E-05   4.57845127752414E-17   7.99087838471086E-05
      3.05706867478903E-15   4.00000000000000E+00   4.00000000000000E+00   0.00000000000000E+00   0.00000000000000E+00
      0.00000000000000E+00   0.00000000000000E+00   0.00000000000000E+00   1.84778450059219E-15
      4.07822249370171E-01
      0.00000000000000E+00   0.00000000000000E+00   0.00000000000000E+00   0.00000000000000E+00  -8.32157820925353E-05
     -4.13955783367278E-15  -8.32157820966749E-05  -4.98557224202647E-15   4.07822249370171E+01   4.07822249370171E+01
      0.00000000000000E+00   0.00000000000000E+00   8.32157820965481E-05   7.90768020201833E-17   8.32157820966272E-05
      3.43188860148082E-15   4.00000000000000E+00   4.00000000000000E+00   0.00000000000000E+00   0.00000000000000E+00
      0.00000000000000E+00   0.00000000000000E+00   0.00000000000000E+00   1.55665825218132E-15
      4.55758139154239E-01
      0.00000000000000E+00   0.00000000000000E+00   0.00000000000000E+00   0.00000000000000E+00  -8.56015790888413E-05
     -3.84137486786823E-15  -8.56015790926827E-05  -5.05793880516485E-15   4.55758139154239E+01   4.55758139154239E+01
      0.00000000000000E+00   0.00000000000000E+00   8.56015790923457E-05   1.13104102777208E-16   8.56015790924588E-05
      3.70915970088130E-15   4.00000000000000E+00   4.00000000000000E+00   0.00000000000000E+00   0.00000000000000E+00
      0.00000000000000E+00   0.00000000000000E+00   0.00000000000000E+00   1.35242060317508E-15
      5.07145413002761E-01
      0.00000000000000E+00   0.00000000000000E+00   0.00000000000000E+00   0.00000000000000E+00  -8.80442988924968E-05
     -3.60947857403523E-15  -8.80442988961062E-05  -5.14118716758921E-15   5.07145413002761E+01   5.07145413002761E+01
      0.00000000000000E+00   0.00000000000000E+00   8.80442988955434E-05   1.53273102959070E-16   8.80442988956967E-05
      3.99889200119322E-15   4.00000000000000E+00   4.00000000000000E+00   0.00000000000000E+00   0.00000000000000E+00
      0.00000000000000E+00   0.00000000000000E+00   0.00000000000000E+00   1.14667763469551E-15
      5.87309560206454E-01
      0.00000000000000E+00   0.00000000000000E+00   0.00000000000000E+00   0.00000000000000E+00  -9.16438396194451E-05
     -3.33852504905385E-15  -9.16438396227836E-05  -5.27790198800298E-15   5.87309560206454E+01   5.87309560206454E+01
      0.00000000000000E+00   0.00000000000000E+00   9.16438396226057E-05   1.92144617112349E-16   9.16438396227979E-05
      4.44093069243453E-15   4.00000000000000E+00   4.00000000000000E+00   0.00000000000000E+00   0.00000000000000E+00
      0.00000000000000E+00   0.00000000000000E+00   0.00000000000000E+00   8.42472863712475E-16
      7.07235124423178E-01
      0.00000000000000E+00   0.00000000000000E+00   0.00000000000000E+00   0.00000000000000E+00  -9.66683631839151E-05
     -3.05396152333835E-15  -9.66683631869690E-05  -5.49459457670677E-15   7.07235124423178E+01   7.07235124423178E+01
      0.00000000000000E+00   0.00000000000000E+00   9.66683631862960E-05   2.17669493907906E-16   9.66683631865136E-05
      5.08952313853554E-15   4.00000000000000E+00   4.00000000000000E+00   0.00000000000000E+00   0.00000000000000E+00
      0.00000000000000E+00   0.00000000000000E+00   0.00000000000000E+00   4.11946810521871E-16
      8.88562577518866E-01
      0.00000000000000E+00   0.00000000000000E+00   0.00000000000000E+00   0.00000000000000E+00  -1.03544675032483E-04
     -2.75973708757412E-15  -1.03544675035243E-04  -5.84444413973711E-15   8.88562577518866E+01   8.88562577518866E+01
      0.00000000000000E+00   0.00000000000000E+00   1.03544675034938E-04   2.33949267097612E-16   1.03544675035172E-04
      6.06464324186236E-15   4.00000000000000E+00   4.00000000000000E+00   0.00000000000000E+00   0.00000000000000E+00
      0.00000000000000E+00   0.00000000000000E+00   0.00000000000000E+00  -2.12171499927984E-16
      1.00000000000000E+00
      0.00000000000000E+00   0.00000000000000E+00   0.00000000000000E+00   0.00000000000000E+00  -1.07172020375121E-04
     -2.65798539347437E-15  -1.07172020377779E-04  -6.06667181492352E-15   1.00000000000000E+02   1.00000000000000E+02
      0.00000000000000E+00   0.00000000000000E+00   1.07172020377473E-04   2.39362179890630E-16   1.07172020377712E-04
      6.67030251934764E-15   4.00000000000000E+00   4.00000000000000E+00   0.00000000000000E+00   0.00000000000000E+00
      0.00000000000000E+00   0.00000000000000E+00   0.00000000000000E+00  -5.95468587661003E-16
}
