DF-ISE text

Info {
  version   = 1.0
  type      = xyplot
  datasets  = [
    "time"
    "source OuterVoltage" "source InnerVoltage" "source QuasiFermiPotential" "source DisplacementCurrent" "source eCurrent"
    "source hCurrent" "source TotalCurrent" "source Charge" "drain OuterVoltage" "drain InnerVoltage"
    "drain QuasiFermiPotential" "drain DisplacementCurrent" "drain eCurrent" "drain hCurrent" "drain TotalCurrent"
    "drain Charge" "gate OuterVoltage" "gate InnerVoltage" "gate QuasiFermiPotential" "gate DisplacementCurrent"
    "gate eCurrent" "gate hCurrent" "gate TotalCurrent" "gate Charge" ]
  functions = [
    Time
    OuterVoltage InnerVoltage QuasiFermiPotential DisplacementCurrent eCurrent
    hCurrent TotalCurrent Charge OuterVoltage InnerVoltage
    QuasiFermiPotential DisplacementCurrent eCurrent hCurrent TotalCurrent
    Charge OuterVoltage InnerVoltage QuasiFermiPotential DisplacementCurrent
    eCurrent hCurrent TotalCurrent Charge ]
}

Data {
      6.25000000000000E-02
      0.00000000000000E+00   0.00000000000000E+00   0.00000000000000E+00   0.00000000000000E+00  -4.67681327696735E-05
     -5.41056645144441E-15  -4.67681327750840E-05  -6.73932816851110E-15   6.25000000000000E+00   6.25000000000000E+00
      0.00000000000000E+00   0.00000000000000E+00   4.67681325358487E-05   1.15285168770499E-19   4.67681325358488E-05
      3.84913122175132E-16   5.00000000000000E+00   5.00000000000000E+00   0.00000000000000E+00   0.00000000000000E+00
      0.00000000000000E+00   0.00000000000000E+00   0.00000000000000E+00   6.39347389000121E-15
      1.25000000000000E-01
      0.00000000000000E+00   0.00000000000000E+00   0.00000000000000E+00   0.00000000000000E+00  -6.75103151196054E-05
     -5.88060328613088E-15  -6.75103151254860E-05  -6.90079731296634E-15   1.25000000000000E+01   1.25000000000000E+01
      0.00000000000000E+00   0.00000000000000E+00   6.75103149756417E-05   1.15715416358829E-19   6.75103149756418E-05
      9.27726005967831E-16   5.00000000000000E+00   5.00000000000000E+00   0.00000000000000E+00   0.00000000000000E+00
      0.00000000000000E+00   0.00000000000000E+00   0.00000000000000E+00   6.00745427620373E-15
      1.43125000000000E-01
      0.00000000000000E+00   0.00000000000000E+00   0.00000000000000E+00   0.00000000000000E+00  -7.23002243998469E-05
     -5.91233562839924E-15  -7.23002244057592E-05  -6.93252629539561E-15   1.43125000000000E+01   1.43125000000000E+01
      0.00000000000000E+00   0.00000000000000E+00   7.23002242567138E-05   1.15854593680640E-19   7.23002242567139E-05
      1.05531972822286E-15   5.00000000000000E+00   5.00000000000000E+00   0.00000000000000E+00   0.00000000000000E+00
      0.00000000000000E+00   0.00000000000000E+00   0.00000000000000E+00   5.91042060310801E-15
      1.62845000000000E-01
      0.00000000000000E+00   0.00000000000000E+00   0.00000000000000E+00   0.00000000000000E+00  -7.71712798220607E-05
     -5.91297035146722E-15  -7.71712798279737E-05  -6.96694296070548E-15   1.62845000000000E+01   1.62845000000000E+01
      0.00000000000000E+00   0.00000000000000E+00   7.71712797580402E-05   1.16013370678127E-19   7.71712797580403E-05
      1.18506165232048E-15   5.00000000000000E+00   5.00000000000000E+00   0.00000000000000E+00   0.00000000000000E+00
      0.00000000000000E+00   0.00000000000000E+00   0.00000000000000E+00   5.81391743701142E-15
      1.82565000000000E-01
      0.00000000000000E+00   0.00000000000000E+00   0.00000000000000E+00   0.00000000000000E+00  -8.17567494662315E-05
     -5.89380236684547E-15  -8.17567494721253E-05  -6.99688069469352E-15   1.82565000000000E+01   1.82565000000000E+01
      0.00000000000000E+00   0.00000000000000E+00   8.17567494721099E-05   1.16171784943639E-19   8.17567494721101E-05
      1.30891506591134E-15   5.00000000000000E+00   5.00000000000000E+00   0.00000000000000E+00   0.00000000000000E+00
      0.00000000000000E+00   0.00000000000000E+00   0.00000000000000E+00   5.71884196730770E-15
      2.13328200000000E-01
      0.00000000000000E+00   0.00000000000000E+00   0.00000000000000E+00   0.00000000000000E+00  -8.85086834809643E-05
     -5.83629718299985E-15  -8.85086834868006E-05  -7.03640906990992E-15   2.13328200000000E+01   2.13328200000000E+01
      0.00000000000000E+00   0.00000000000000E+00   8.85086833817539E-05   1.16392755945363E-19   8.85086833817540E-05
      1.49590738997501E-15   5.00000000000000E+00   5.00000000000000E+00   0.00000000000000E+00   0.00000000000000E+00
      0.00000000000000E+00   0.00000000000000E+00   0.00000000000000E+00   5.56955587854107E-15
      2.56396680000000E-01
      0.00000000000000E+00   0.00000000000000E+00   0.00000000000000E+00   0.00000000000000E+00  -9.73078938429565E-05
     -5.67467802192859E-15  -9.73078938486312E-05  -7.05915559806344E-15   2.56396680000000E+01   2.56396680000000E+01
      0.00000000000000E+00   0.00000000000000E+00   9.73078936600745E-05   1.16656335401242E-19   9.73078936600746E-05
      1.75971349299921E-15   5.00000000000000E+00   5.00000000000000E+00   0.00000000000000E+00   0.00000000000000E+00
      0.00000000000000E+00   0.00000000000000E+00   0.00000000000000E+00   5.32557888458208E-15
      3.13247073600000E-01
      0.00000000000000E+00   0.00000000000000E+00   0.00000000000000E+00   0.00000000000000E+00  -1.08001015892181E-04
     -5.36934394307677E-15  -1.08001015897550E-04  -7.08419811448126E-15   3.13247073600000E+01   3.13247073600000E+01
      0.00000000000000E+00   0.00000000000000E+00   1.08001015574753E-04   1.16991936284180E-19   1.08001015574753E-04
      2.11701216344777E-15   5.00000000000000E+00   5.00000000000000E+00   0.00000000000000E+00   0.00000000000000E+00
      0.00000000000000E+00   0.00000000000000E+00   0.00000000000000E+00   4.98917682960346E-15
      4.01478884467200E-01
      0.00000000000000E+00   0.00000000000000E+00   0.00000000000000E+00   0.00000000000000E+00  -1.22525017863801E-04
     -4.75658591647933E-15  -1.22525017868558E-04  -7.14900075900846E-15   4.01478884467200E+01   4.01478884467200E+01
      0.00000000000000E+00   0.00000000000000E+00   1.22525017398791E-04   1.17479026011423E-19   1.22525017398791E-04
      2.71575492122115E-15   5.00000000000000E+00   5.00000000000000E+00   0.00000000000000E+00   0.00000000000000E+00
      0.00000000000000E+00   0.00000000000000E+00   0.00000000000000E+00   4.44818198200978E-15
      4.18066464910234E-01
      0.00000000000000E+00   0.00000000000000E+00   0.00000000000000E+00   0.00000000000000E+00  -1.24925968184289E-04
     -4.63889096147077E-15  -1.24925968188928E-04  -7.16629803994090E-15   4.18066464910234E+01   4.18066464910234E+01
      0.00000000000000E+00   0.00000000000000E+00   1.24925967776474E-04   1.17563876813812E-19   1.24925967776474E-04
      2.83712418798137E-15   5.00000000000000E+00   5.00000000000000E+00   0.00000000000000E+00   0.00000000000000E+00
      0.00000000000000E+00   0.00000000000000E+00   0.00000000000000E+00   4.34272463223707E-15
      4.21118579711752E-01
      0.00000000000000E+00   0.00000000000000E+00   0.00000000000000E+00   0.00000000000000E+00  -1.25381857823421E-04
     -4.61804837643732E-15  -1.25381857828039E-04  -7.17237249071524E-15   4.21118579711752E+01   4.21118579711752E+01
      0.00000000000000E+00   0.00000000000000E+00   1.25381857573012E-04   1.17579572563263E-19   1.25381857573012E-04
      2.85840798574011E-15   5.00000000000000E+00   5.00000000000000E+00   0.00000000000000E+00   0.00000000000000E+00
      0.00000000000000E+00   0.00000000000000E+00   0.00000000000000E+00   4.32729762665549E-15
      4.25245038923404E-01
      0.00000000000000E+00   0.00000000000000E+00   0.00000000000000E+00   0.00000000000000E+00  -1.26135058127714E-04
     -4.59170906771527E-15  -1.26135058132306E-04  -7.19434076574357E-15   4.25245038923404E+01   4.25245038923404E+01
      0.00000000000000E+00   0.00000000000000E+00   1.26135058025903E-04   1.17602460854541E-19   1.26135058025903E-04
      2.88014025434565E-15   5.00000000000000E+00   5.00000000000000E+00   0.00000000000000E+00   0.00000000000000E+00
      0.00000000000000E+00   0.00000000000000E+00   0.00000000000000E+00   4.32742801340413E-15
      4.28282112903181E-01
      0.00000000000000E+00   0.00000000000000E+00   0.00000000000000E+00   0.00000000000000E+00  -1.26684700433912E-04
     -4.57248060092655E-15  -1.26684700438484E-04  -7.21013427160373E-15   4.28282112903181E+01   4.28282112903181E+01
      0.00000000000000E+00   0.00000000000000E+00   1.26684700045430E-04   1.17619195516469E-19   1.26684700045430E-04
      2.89632909377064E-15   5.00000000000000E+00   5.00000000000000E+00   0.00000000000000E+00   0.00000000000000E+00
      0.00000000000000E+00   0.00000000000000E+00   0.00000000000000E+00   4.32694983037110E-15
      4.29454423459374E-01
      0.00000000000000E+00   0.00000000000000E+00   0.00000000000000E+00   0.00000000000000E+00  -1.26899496221693E-04
     -4.56513601279289E-15  -1.26899496226258E-04  -7.21650204977283E-15   4.29454423459374E+01   4.29454423459374E+01
      0.00000000000000E+00   0.00000000000000E+00   1.26899495841722E-04   1.17625676801783E-19   1.26899495841722E-04
      2.90243517786738E-15   5.00000000000000E+00   5.00000000000000E+00   0.00000000000000E+00   0.00000000000000E+00
      0.00000000000000E+00   0.00000000000000E+00   0.00000000000000E+00   4.32718334065582E-15
      4.31217578535890E-01
      0.00000000000000E+00   0.00000000000000E+00   0.00000000000000E+00   0.00000000000000E+00  -1.27182671758642E-04
     -4.55371519795807E-15  -1.27182671763196E-04  -7.22230257848291E-15   4.31217578535890E+01   4.31217578535890E+01
      0.00000000000000E+00   0.00000000000000E+00   1.27182671408246E-04   1.17634915863366E-19   1.27182671408246E-04
      2.91361367851376E-15   5.00000000000000E+00   5.00000000000000E+00   0.00000000000000E+00   0.00000000000000E+00
      0.00000000000000E+00   0.00000000000000E+00   0.00000000000000E+00   4.32171024380803E-15
      4.32261366341187E-01
      0.00000000000000E+00   0.00000000000000E+00   0.00000000000000E+00   0.00000000000000E+00  -1.27212168116753E-04
     -4.54552461560996E-15  -1.27212168121298E-04  -7.21281459126505E-15   4.32261366341187E+01   4.32261366341187E+01
      0.00000000000000E+00   0.00000000000000E+00   1.27212167973656E-04   1.17638663247029E-19   1.27212167973656E-04
      2.92712827851149E-15   5.00000000000000E+00   5.00000000000000E+00   0.00000000000000E+00   0.00000000000000E+00
      0.00000000000000E+00   0.00000000000000E+00   0.00000000000000E+00   4.29847160838719E-15
      4.33480510497774E-01
      0.00000000000000E+00   0.00000000000000E+00   0.00000000000000E+00   0.00000000000000E+00  -1.27247072700813E-04
     -4.53602623136046E-15  -1.27247072705349E-04  -7.20219423573468E-15   4.33480510497774E+01   4.33480510497774E+01
      0.00000000000000E+00   0.00000000000000E+00   1.27247072430908E-04   1.17643047746005E-19   1.27247072430908E-04
      2.94279740907085E-15   5.00000000000000E+00   5.00000000000000E+00   0.00000000000000E+00   0.00000000000000E+00
      0.00000000000000E+00   0.00000000000000E+00   0.00000000000000E+00   4.27191464900245E-15
      4.34392430326901E-01
      0.00000000000000E+00   0.00000000000000E+00   0.00000000000000E+00   0.00000000000000E+00  -1.27379836796361E-04
     -4.53007000039035E-15  -1.27379836800891E-04  -7.20415211729118E-15   4.34392430326901E+01   4.34392430326901E+01
      0.00000000000000E+00   0.00000000000000E+00   1.27379836523560E-04   1.17647649163001E-19   1.27379836523560E-04
      2.94920776930389E-15   5.00000000000000E+00   5.00000000000000E+00   0.00000000000000E+00   0.00000000000000E+00
      0.00000000000000E+00   0.00000000000000E+00   0.00000000000000E+00   4.26739845367624E-15
      4.35304350156028E-01
      0.00000000000000E+00   0.00000000000000E+00   0.00000000000000E+00   0.00000000000000E+00  -1.27522195676024E-04
     -4.52423345122918E-15  -1.27522195680548E-04  -7.20700491494359E-15   4.35304350156028E+01   4.35304350156028E+01
      0.00000000000000E+00   0.00000000000000E+00   1.27522195470257E-04   1.17652366519956E-19   1.27522195470257E-04
      2.95513812796390E-15   5.00000000000000E+00   5.00000000000000E+00   0.00000000000000E+00   0.00000000000000E+00
      0.00000000000000E+00   0.00000000000000E+00   0.00000000000000E+00   4.26426939315187E-15
      4.36675877579035E-01
      0.00000000000000E+00   0.00000000000000E+00   0.00000000000000E+00   0.00000000000000E+00  -1.27738929443390E-04
     -4.51551907637646E-15  -1.27738929447906E-04  -7.21156919005718E-15   4.36675877579035E+01   4.36675877579035E+01
      0.00000000000000E+00   0.00000000000000E+00   1.27738929152866E-04   1.17659487370942E-19   1.27738929152866E-04
      2.96391692128223E-15   5.00000000000000E+00   5.00000000000000E+00   0.00000000000000E+00   0.00000000000000E+00
      0.00000000000000E+00   0.00000000000000E+00   0.00000000000000E+00   4.25998110778664E-15
      4.38837404797694E-01
      0.00000000000000E+00   0.00000000000000E+00   0.00000000000000E+00   0.00000000000000E+00  -1.28079971850092E-04
     -4.50186914150951E-15  -1.28079971854593E-04  -7.21880047665259E-15   4.38837404797694E+01   4.38837404797694E+01
      0.00000000000000E+00   0.00000000000000E+00   1.28079971602981E-04   1.17670687983839E-19   1.28079971602981E-04
      2.97775161776804E-15   5.00000000000000E+00   5.00000000000000E+00   0.00000000000000E+00   0.00000000000000E+00
      0.00000000000000E+00   0.00000000000000E+00   0.00000000000000E+00   4.25326183316004E-15
      4.42278556129799E-01
      0.00000000000000E+00   0.00000000000000E+00   0.00000000000000E+00   0.00000000000000E+00  -1.28624249884541E-04
     -4.48037837839317E-15  -1.28624249889022E-04  -7.23063936803620E-15   4.42278556129799E+01   4.42278556129799E+01
      0.00000000000000E+00   0.00000000000000E+00   1.28624249640323E-04   1.17688498869221E-19   1.28624249640323E-04
      2.99964465656270E-15   5.00000000000000E+00   5.00000000000000E+00   0.00000000000000E+00   0.00000000000000E+00
      0.00000000000000E+00   0.00000000000000E+00   0.00000000000000E+00   4.24302740783505E-15
      4.47729339839854E-01
      0.00000000000000E+00   0.00000000000000E+00   0.00000000000000E+00   0.00000000000000E+00  -1.29475651601992E-04
     -4.44681265904388E-15  -1.29475651606439E-04  -7.24897631792860E-15   4.47729339839854E+01   4.47729339839854E+01
      0.00000000000000E+00   0.00000000000000E+00   1.29475650214612E-04   1.17716477816326E-19   1.29475650214612E-04
      3.03467545650809E-15   5.00000000000000E+00   5.00000000000000E+00   0.00000000000000E+00   0.00000000000000E+00
      0.00000000000000E+00   0.00000000000000E+00   0.00000000000000E+00   4.22604171079958E-15
