DF-ISE text

Info {
  version   = 1.0
  type      = xyplot
  datasets  = [
    "time"
    "source OuterVoltage" "source InnerVoltage" "source QuasiFermiPotential" "source DisplacementCurrent" "source eCurrent"
    "source hCurrent" "source TotalCurrent" "source Charge" "drain OuterVoltage" "drain InnerVoltage"
    "drain QuasiFermiPotential" "drain DisplacementCurrent" "drain eCurrent" "drain hCurrent" "drain TotalCurrent"
    "drain Charge" "gate OuterVoltage" "gate InnerVoltage" "gate QuasiFermiPotential" "gate DisplacementCurrent"
    "gate eCurrent" "gate hCurrent" "gate TotalCurrent" "gate Charge" ]
  functions = [
    Time
    OuterVoltage InnerVoltage QuasiFermiPotential DisplacementCurrent eCurrent
    hCurrent TotalCurrent Charge OuterVoltage InnerVoltage
    QuasiFermiPotential DisplacementCurrent eCurrent hCurrent TotalCurrent
    Charge OuterVoltage InnerVoltage QuasiFermiPotential DisplacementCurrent
    eCurrent hCurrent TotalCurrent Charge ]
}

Data {
      2.50000000000000E-01
      0.00000000000000E+00   0.00000000000000E+00   0.00000000000000E+00   0.00000000000000E+00  -2.24021233445162E-05
     -5.27393821284717E-15  -2.24021233497902E-05  -3.02562577209965E-15   2.50000000000000E+01   2.50000000000000E+01
      0.00000000000000E+00   0.00000000000000E+00   2.24021233497886E-05   1.15498883574330E-19   2.24021233497887E-05
      3.88892125413567E-15   1.00000000000000E+00   1.00000000000000E+00   0.00000000000000E+00   0.00000000000000E+00
      0.00000000000000E+00   0.00000000000000E+00   0.00000000000000E+00  -8.63294437637663E-16
      4.37000000000000E-01
      0.00000000000000E+00   0.00000000000000E+00   0.00000000000000E+00   0.00000000000000E+00  -3.40789972165886E-05
     -4.16793433813395E-15  -3.40789972207566E-05  -3.70771003138621E-15   4.37000000000000E+01   4.37000000000000E+01
      0.00000000000000E+00   0.00000000000000E+00   3.40789972207507E-05   1.16583174769052E-19   3.40789972207509E-05
      5.19698608397764E-15   1.00000000000000E+00   1.00000000000000E+00   0.00000000000000E+00   0.00000000000000E+00
      0.00000000000000E+00   0.00000000000000E+00   0.00000000000000E+00  -1.48927480413109E-15
      7.19744000000000E-01
      0.00000000000000E+00   0.00000000000000E+00   0.00000000000000E+00   0.00000000000000E+00  -5.22781046072560E-05
     -3.41284018362203E-15  -5.22781046106688E-05  -4.66655140438800E-15   7.19744000000000E+01   7.19744000000000E+01
      0.00000000000000E+00   0.00000000000000E+00   5.22781046106610E-05   1.18133021104230E-19   5.22781046106611E-05
      7.04243281033135E-15   1.00000000000000E+00   1.00000000000000E+00   0.00000000000000E+00   0.00000000000000E+00
      0.00000000000000E+00   0.00000000000000E+00   0.00000000000000E+00  -2.37587754430713E-15
      1.00000000000000E+00
      0.00000000000000E+00   0.00000000000000E+00   0.00000000000000E+00   0.00000000000000E+00  -7.10335578539159E-05
     -3.07155581290637E-15  -7.10335578569874E-05  -5.60452264465401E-15   1.00000000000000E+02   1.00000000000000E+02
      0.00000000000000E+00   0.00000000000000E+00   7.10335578569929E-05   1.19091501850039E-19   7.10335578569930E-05
      8.83565587361580E-15   1.00000000000000E+00   1.00000000000000E+00   0.00000000000000E+00   0.00000000000000E+00
      0.00000000000000E+00   0.00000000000000E+00   0.00000000000000E+00  -3.23112339020894E-15
}
