DF-ISE text

Info {
  version   = 1.0
  type      = xyplot
  datasets  = [
    "time"
    "source OuterVoltage" "source InnerVoltage" "source QuasiFermiPotential" "source DisplacementCurrent" "source eCurrent"
    "source hCurrent" "source TotalCurrent" "source Charge" "drain OuterVoltage" "drain InnerVoltage"
    "drain QuasiFermiPotential" "drain DisplacementCurrent" "drain eCurrent" "drain hCurrent" "drain TotalCurrent"
    "drain Charge" "gate OuterVoltage" "gate InnerVoltage" "gate QuasiFermiPotential" "gate DisplacementCurrent"
    "gate eCurrent" "gate hCurrent" "gate TotalCurrent" "gate Charge" ]
  functions = [
    Time
    OuterVoltage InnerVoltage QuasiFermiPotential DisplacementCurrent eCurrent
    hCurrent TotalCurrent Charge OuterVoltage InnerVoltage
    QuasiFermiPotential DisplacementCurrent eCurrent hCurrent TotalCurrent
    Charge OuterVoltage InnerVoltage QuasiFermiPotential DisplacementCurrent
    eCurrent hCurrent TotalCurrent Charge ]
}

Data {
      1.56250000000000E-02
      0.00000000000000E+00   0.00000000000000E+00   0.00000000000000E+00   0.00000000000000E+00  -1.32424580888426E-05
     -3.86289781229775E-15  -1.32424580927055E-05  -4.60944835115332E-15   1.56250000000000E+00   1.56250000000000E+00
      0.00000000000000E+00   0.00000000000000E+00   1.32424580926956E-05   3.83251135475898E-18   1.32424580926994E-05
      2.67629093069991E-16   3.00000000000000E+00   3.00000000000000E+00   0.00000000000000E+00   0.00000000000000E+00
      0.00000000000000E+00   0.00000000000000E+00   0.00000000000000E+00   4.34235809379948E-15
      3.16250000000000E-02
      0.00000000000000E+00   0.00000000000000E+00   0.00000000000000E+00   0.00000000000000E+00  -2.29695722704749E-05
     -4.89085358302228E-15  -2.29695722753658E-05  -4.45725186473295E-15   3.16250000000000E+00   3.16250000000000E+00
      0.00000000000000E+00   0.00000000000000E+00   2.29695722753133E-05   4.24093228940297E-18   2.29695722753175E-05
      5.61909340664399E-16   3.00000000000000E+00   3.00000000000000E+00   0.00000000000000E+00   0.00000000000000E+00
      0.00000000000000E+00   0.00000000000000E+00   0.00000000000000E+00   3.89583786672023E-15
      5.35130000000000E-02
      0.00000000000000E+00   0.00000000000000E+00   0.00000000000000E+00   0.00000000000000E+00  -3.31779273693701E-05
     -5.46651409959285E-15  -3.31779273748367E-05  -4.22201356571984E-15   5.35130000000000E+00   5.35130000000000E+00
      0.00000000000000E+00   0.00000000000000E+00   3.31779273748258E-05   4.65455636484634E-18   3.31779273748305E-05
      8.99401387348975E-16   3.00000000000000E+00   3.00000000000000E+00   0.00000000000000E+00   0.00000000000000E+00
      0.00000000000000E+00   0.00000000000000E+00   0.00000000000000E+00   3.32309637404121E-15
      6.19179920000000E-02
      0.00000000000000E+00   0.00000000000000E+00   0.00000000000000E+00   0.00000000000000E+00  -3.63507370671363E-05
     -5.62736022091036E-15  -3.63507370727637E-05  -4.12967955402468E-15   6.19179920000000E+00   6.19179920000000E+00
      0.00000000000000E+00   0.00000000000000E+00   3.63507370727530E-05   4.79019166625176E-18   3.63507370727578E-05
      1.01824717211118E-15   3.00000000000000E+00   3.00000000000000E+00   0.00000000000000E+00   0.00000000000000E+00
      0.00000000000000E+00   0.00000000000000E+00   0.00000000000000E+00   3.11191589988114E-15
      7.44246200960000E-02
      0.00000000000000E+00   0.00000000000000E+00   0.00000000000000E+00   0.00000000000000E+00  -4.03906874570436E-05
     -5.79711199136608E-15  -4.03906874628407E-05  -3.99713213421139E-15   7.44246200960000E+00   7.44246200960000E+00
      0.00000000000000E+00   0.00000000000000E+00   4.03906874628395E-05   4.97333997416068E-18   4.03906874628445E-05
      1.18980845132801E-15   3.00000000000000E+00   3.00000000000000E+00   0.00000000000000E+00   0.00000000000000E+00
      0.00000000000000E+00   0.00000000000000E+00   0.00000000000000E+00   2.80780440040307E-15
      8.06779341440000E-02
      0.00000000000000E+00   0.00000000000000E+00   0.00000000000000E+00   0.00000000000000E+00  -4.21176201555936E-05
     -5.86629041049989E-15  -4.21176201614599E-05  -3.93697832396875E-15   8.06779341440000E+00   8.06779341440000E+00
      0.00000000000000E+00   0.00000000000000E+00   4.21176201614453E-05   5.05697930206234E-18   4.21176201614503E-05
      1.27455489352041E-15   3.00000000000000E+00   3.00000000000000E+00   0.00000000000000E+00   0.00000000000000E+00
      0.00000000000000E+00   0.00000000000000E+00   0.00000000000000E+00   2.66290086205663E-15
      8.54304528204800E-02
      0.00000000000000E+00   0.00000000000000E+00   0.00000000000000E+00   0.00000000000000E+00  -4.33027172822343E-05
     -5.91003012336648E-15  -4.33027172881444E-05  -3.89593147187018E-15   8.54304528204800E+00   8.54304528204800E+00
      0.00000000000000E+00   0.00000000000000E+00   4.33027172881354E-05   5.11709262390272E-18   4.33027172881405E-05
      1.33895978890783E-15   3.00000000000000E+00   3.00000000000000E+00   0.00000000000000E+00   0.00000000000000E+00
      0.00000000000000E+00   0.00000000000000E+00   0.00000000000000E+00   2.55744550978680E-15
      9.10574349334323E-02
      0.00000000000000E+00   0.00000000000000E+00   0.00000000000000E+00   0.00000000000000E+00  -4.45671139905830E-05
     -5.94510891986694E-15  -4.45671139965281E-05  -3.85422964240181E-15   9.10574349334323E+00   9.10574349334323E+00
      0.00000000000000E+00   0.00000000000000E+00   4.45671139965119E-05   5.18453638611586E-18   4.45671139965171E-05
      1.41540957012433E-15   3.00000000000000E+00   3.00000000000000E+00   0.00000000000000E+00   0.00000000000000E+00
      0.00000000000000E+00   0.00000000000000E+00   0.00000000000000E+00   2.43928836447845E-15
      9.52214016970170E-02
      0.00000000000000E+00   0.00000000000000E+00   0.00000000000000E+00   0.00000000000000E+00  -4.54116868405448E-05
     -5.96272740025121E-15  -4.54116868465075E-05  -3.82943755567147E-15   9.52214016970170E+00   9.52214016970170E+00
      0.00000000000000E+00   0.00000000000000E+00   4.54116868465108E-05   5.23210948150024E-18   4.54116868465160E-05
      1.47194206622644E-15   3.00000000000000E+00   3.00000000000000E+00   0.00000000000000E+00   0.00000000000000E+00
      0.00000000000000E+00   0.00000000000000E+00   0.00000000000000E+00   2.35795890276302E-15
      1.01284137304796E-01
      0.00000000000000E+00   0.00000000000000E+00   0.00000000000000E+00   0.00000000000000E+00  -4.65134368797290E-05
     -5.98231789534760E-15  -4.65134368857113E-05  -3.80309361885844E-15   1.01284137304796E+01   1.01284137304796E+01
      0.00000000000000E+00   0.00000000000000E+00   4.65134368856923E-05   5.29836629939865E-18   4.65134368856976E-05
      1.55352513577088E-15   3.00000000000000E+00   3.00000000000000E+00   0.00000000000000E+00   0.00000000000000E+00
      0.00000000000000E+00   0.00000000000000E+00   0.00000000000000E+00   2.25002390350845E-15
      1.10450993543759E-01
      0.00000000000000E+00   0.00000000000000E+00   0.00000000000000E+00   0.00000000000000E+00  -4.79530136161591E-05
     -6.00736596214690E-15  -4.79530136221665E-05  -3.78414039740118E-15   1.10450993543759E+01   1.10450993543759E+01
      0.00000000000000E+00   0.00000000000000E+00   4.79530136221667E-05   5.39517316513860E-18   4.79530136221721E-05
      1.67132261270273E-15   3.00000000000000E+00   3.00000000000000E+00   0.00000000000000E+00   0.00000000000000E+00
      0.00000000000000E+00   0.00000000000000E+00   0.00000000000000E+00   2.11326045432111E-15
      1.13402721252705E-01
      0.00000000000000E+00   0.00000000000000E+00   0.00000000000000E+00   0.00000000000000E+00  -4.83747661318184E-05
     -6.01172965377791E-15  -4.83747661378301E-05  -3.78212215475902E-15   1.13402721252705E+01   1.13402721252705E+01
      0.00000000000000E+00   0.00000000000000E+00   4.83747661378223E-05   5.42645786311778E-18   4.83747661378277E-05
      1.70735380105025E-15   3.00000000000000E+00   3.00000000000000E+00   0.00000000000000E+00   0.00000000000000E+00
      0.00000000000000E+00   0.00000000000000E+00   0.00000000000000E+00   2.07520708844668E-15
      1.15705068865682E-01
      0.00000000000000E+00   0.00000000000000E+00   0.00000000000000E+00   0.00000000000000E+00  -4.86934767333564E-05
     -6.01300713195415E-15  -4.86934767393694E-05  -3.78158891315045E-15   1.15705068865682E+01   1.15705068865682E+01
      0.00000000000000E+00   0.00000000000000E+00   4.86934767393550E-05   5.45116067341540E-18   4.86934767393605E-05
      1.73489159812857E-15   3.00000000000000E+00   3.00000000000000E+00   0.00000000000000E+00   0.00000000000000E+00
      0.00000000000000E+00   0.00000000000000E+00   0.00000000000000E+00   2.04713312338301E-15
      1.19223056018313E-01
      0.00000000000000E+00   0.00000000000000E+00   0.00000000000000E+00   0.00000000000000E+00  -4.91640620462617E-05
     -6.01243349350439E-15  -4.91640620522741E-05  -3.78209452380989E-15   1.19223056018313E+01   1.19223056018313E+01
      0.00000000000000E+00   0.00000000000000E+00   4.91640620522373E-05   5.48953453388698E-18   4.91640620522428E-05
      1.77619145963922E-15   3.00000000000000E+00   3.00000000000000E+00   0.00000000000000E+00   0.00000000000000E+00
      0.00000000000000E+00   0.00000000000000E+00   0.00000000000000E+00   2.00633470158448E-15
      1.24739259873636E-01
      0.00000000000000E+00   0.00000000000000E+00   0.00000000000000E+00   0.00000000000000E+00  -4.98726909588321E-05
     -6.00868579925320E-15  -4.98726909648408E-05  -3.78588033032862E-15   1.24739259873636E+01   1.24739259873636E+01
      0.00000000000000E+00   0.00000000000000E+00   4.98726909647918E-05   5.55208665443896E-18   4.98726909647973E-05
      1.83915030722277E-15   3.00000000000000E+00   3.00000000000000E+00   0.00000000000000E+00   0.00000000000000E+00
      0.00000000000000E+00   0.00000000000000E+00   0.00000000000000E+00   1.94715608071396E-15
      1.33079760102886E-01
      0.00000000000000E+00   0.00000000000000E+00   0.00000000000000E+00   0.00000000000000E+00  -5.08788653084838E-05
     -6.00288714333564E-15  -5.08788653144867E-05  -3.79594760714059E-15   1.33079760102886E+01   1.33079760102886E+01
      0.00000000000000E+00   0.00000000000000E+00   5.08788653144749E-05   5.65320181764676E-18   5.08788653144805E-05
      1.93109802660171E-15   3.00000000000000E+00   3.00000000000000E+00   0.00000000000000E+00   0.00000000000000E+00
      0.00000000000000E+00   0.00000000000000E+00   0.00000000000000E+00   1.86526973050121E-15
      1.45290252438508E-01
      0.00000000000000E+00   0.00000000000000E+00   0.00000000000000E+00   0.00000000000000E+00  -5.22336281187527E-05
     -5.97794904367004E-15  -5.22336281247306E-05  -3.81763967413524E-15   1.45290252438508E+01   1.45290252438508E+01
      0.00000000000000E+00   0.00000000000000E+00   5.22336281247030E-05   5.82033428626054E-18   5.22336281247088E-05
      2.06042750065109E-15   3.00000000000000E+00   3.00000000000000E+00   0.00000000000000E+00   0.00000000000000E+00
      0.00000000000000E+00   0.00000000000000E+00   0.00000000000000E+00   1.75762892666269E-15
      1.64240936543393E-01
      0.00000000000000E+00   0.00000000000000E+00   0.00000000000000E+00   0.00000000000000E+00  -5.41122811656547E-05
     -5.92122598269551E-15  -5.41122811715759E-05  -3.86087636784418E-15   1.64240936543393E+01   1.64240936543393E+01
      0.00000000000000E+00   0.00000000000000E+00   5.41122811715468E-05   6.14260812007746E-18   5.41122811715530E-05
      2.24799030350134E-15   3.00000000000000E+00   3.00000000000000E+00   0.00000000000000E+00   0.00000000000000E+00
      0.00000000000000E+00   0.00000000000000E+00   0.00000000000000E+00   1.61330787055496E-15
      1.74853319642128E-01
      0.00000000000000E+00   0.00000000000000E+00   0.00000000000000E+00   0.00000000000000E+00  -5.50710050149328E-05
     -5.87440965883973E-15  -5.50710050208072E-05  -3.88759806642023E-15   1.74853319642128E+01   1.74853319642128E+01
      0.00000000000000E+00   0.00000000000000E+00   5.50710050207799E-05   6.36835529042283E-18   5.50710050207862E-05
      2.34468672512816E-15   3.00000000000000E+00   3.00000000000000E+00   0.00000000000000E+00   0.00000000000000E+00
      0.00000000000000E+00   0.00000000000000E+00   0.00000000000000E+00   1.54334056090487E-15
      1.89031463462039E-01
      0.00000000000000E+00   0.00000000000000E+00   0.00000000000000E+00   0.00000000000000E+00  -5.62709772648415E-05
     -5.80038735739627E-15  -5.62709772706419E-05  -3.92407269225652E-15   1.89031463462039E+01   1.89031463462039E+01
      0.00000000000000E+00   0.00000000000000E+00   5.62709772705308E-05   6.73778962277030E-18   5.62709772705376E-05
      2.46589384736967E-15   3.00000000000000E+00   3.00000000000000E+00   0.00000000000000E+00   0.00000000000000E+00
      0.00000000000000E+00   0.00000000000000E+00   0.00000000000000E+00   1.45862267171616E-15
      2.11035942670540E-01
      0.00000000000000E+00   0.00000000000000E+00   0.00000000000000E+00   0.00000000000000E+00  -5.79854580472415E-05
     -5.65217202984806E-15  -5.79854580528936E-05  -3.97996888126007E-15   2.11035942670540E+01   2.11035942670540E+01
      0.00000000000000E+00   0.00000000000000E+00   5.79854580528700E-05   7.51899859005537E-18   5.79854580528775E-05
      2.63922406871236E-15   3.00000000000000E+00   3.00000000000000E+00   0.00000000000000E+00   0.00000000000000E+00
      0.00000000000000E+00   0.00000000000000E+00   0.00000000000000E+00   1.34122317035497E-15
      2.42722392730782E-01
      0.00000000000000E+00   0.00000000000000E+00   0.00000000000000E+00   0.00000000000000E+00  -6.02069222063813E-05
     -5.37045130750431E-15  -6.02069222117517E-05  -4.05637839881830E-15   2.42722392730782E+01   2.42722392730782E+01
      0.00000000000000E+00   0.00000000000000E+00   6.02069222116876E-05   9.36681729937583E-18   6.02069222116970E-05
      2.86349003599866E-15   3.00000000000000E+00   3.00000000000000E+00   0.00000000000000E+00   0.00000000000000E+00
      0.00000000000000E+00   0.00000000000000E+00   0.00000000000000E+00   1.19344674822679E-15
      2.74662334391506E-01
      0.00000000000000E+00   0.00000000000000E+00   0.00000000000000E+00   0.00000000000000E+00  -6.22510099136101E-05
     -5.03174288055320E-15  -6.22510099186418E-05  -4.12926964500992E-15   2.74662334391506E+01   2.74662334391506E+01
      0.00000000000000E+00   0.00000000000000E+00   6.22510099183903E-05   1.30217648617461E-17   6.22510099184033E-05
      3.06887464006823E-15   3.00000000000000E+00   3.00000000000000E+00   0.00000000000000E+00   0.00000000000000E+00
      0.00000000000000E+00   0.00000000000000E+00   0.00000000000000E+00   1.06107138304332E-15
      2.86991151872546E-01
      0.00000000000000E+00   0.00000000000000E+00   0.00000000000000E+00   0.00000000000000E+00  -6.30048481148557E-05
     -4.90363386244092E-15  -6.30048481197593E-05  -4.15659981297757E-15   2.86991151872546E+01   2.86991151872546E+01
      0.00000000000000E+00   0.00000000000000E+00   6.30048481193581E-05   1.51220599057810E-17   6.30048481193732E-05
      3.14439528520168E-15   3.00000000000000E+00   3.00000000000000E+00   0.00000000000000E+00   0.00000000000000E+00
      0.00000000000000E+00   0.00000000000000E+00   0.00000000000000E+00   1.01293584804639E-15
      2.96361053158136E-01
      0.00000000000000E+00   0.00000000000000E+00   0.00000000000000E+00   0.00000000000000E+00  -6.35669585386468E-05
     -4.80538870542699E-15  -6.35669585434522E-05  -4.17709418194765E-15   2.96361053158136E+01   2.96361053158136E+01
      0.00000000000000E+00   0.00000000000000E+00   6.35669585434079E-05   1.69775109105857E-17   6.35669585434249E-05
      3.20071518940486E-15   3.00000000000000E+00   3.00000000000000E+00   0.00000000000000E+00   0.00000000000000E+00
      0.00000000000000E+00   0.00000000000000E+00   0.00000000000000E+00   9.77155329982977E-16
      3.10903139953371E-01
      0.00000000000000E+00   0.00000000000000E+00   0.00000000000000E+00   0.00000000000000E+00  -6.44257022479786E-05
     -4.65316617419658E-15  -6.44257022526318E-05  -4.20861059169115E-15   3.10903139953371E+01   3.10903139953371E+01
      0.00000000000000E+00   0.00000000000000E+00   6.44257022525877E-05   2.02859599766103E-17   6.44257022526080E-05
      3.28647127401311E-15   3.00000000000000E+00   3.00000000000000E+00   0.00000000000000E+00   0.00000000000000E+00
      0.00000000000000E+00   0.00000000000000E+00   0.00000000000000E+00   9.22990948508564E-16
      3.33472458659577E-01
      0.00000000000000E+00   0.00000000000000E+00   0.00000000000000E+00   0.00000000000000E+00  -6.57287634589891E-05
     -4.43516325774391E-15  -6.57287634634243E-05  -4.25679965770078E-15   3.33472458659577E+01   3.33472458659577E+01
      0.00000000000000E+00   0.00000000000000E+00   6.57287634633817E-05   2.64610351297931E-17   6.57287634634081E-05
      3.41626389959652E-15   3.00000000000000E+00   3.00000000000000E+00   0.00000000000000E+00   0.00000000000000E+00
      0.00000000000000E+00   0.00000000000000E+00   0.00000000000000E+00   8.41516317259063E-16
      3.68680595841258E-01
      0.00000000000000E+00   0.00000000000000E+00   0.00000000000000E+00   0.00000000000000E+00  -6.77042514165873E-05
     -4.13984770267691E-15  -6.77042514207272E-05  -4.33069262473734E-15   3.68680595841258E+01   3.68680595841258E+01
      0.00000000000000E+00   0.00000000000000E+00   6.77042514205757E-05   3.90840624716900E-17   6.77042514206148E-05
      3.61251098779458E-15   3.00000000000000E+00   3.00000000000000E+00   0.00000000000000E+00   0.00000000000000E+00
      0.00000000000000E+00   0.00000000000000E+00   0.00000000000000E+00   7.19388816143986E-16
      4.12620351043996E-01
      0.00000000000000E+00   0.00000000000000E+00   0.00000000000000E+00   0.00000000000000E+00  -7.00959909559746E-05
     -3.84857027324546E-15  -7.00959909598232E-05  -4.42162219546777E-15   4.12620351043996E+01   4.12620351043996E+01
      0.00000000000000E+00   0.00000000000000E+00   7.00959909596399E-05   6.02978649870243E-17   7.00959909597001E-05
      3.84980266549197E-15   3.00000000000000E+00   3.00000000000000E+00   0.00000000000000E+00   0.00000000000000E+00
      0.00000000000000E+00   0.00000000000000E+00   0.00000000000000E+00   5.73342834271194E-16
      4.80463333077023E-01
      0.00000000000000E+00   0.00000000000000E+00   0.00000000000000E+00   0.00000000000000E+00  -7.36641301532343E-05
     -3.53281040132151E-15  -7.36641301567671E-05  -4.56125776069118E-15   4.80463333077023E+01   4.80463333077023E+01
      0.00000000000000E+00   0.00000000000000E+00   7.36641301563088E-05   1.06011730442254E-16   7.36641301564148E-05
      4.20608385305453E-15   3.00000000000000E+00   3.00000000000000E+00   0.00000000000000E+00   0.00000000000000E+00
      0.00000000000000E+00   0.00000000000000E+00   0.00000000000000E+00   3.57223690728854E-16
      5.75443507923261E-01
      0.00000000000000E+00   0.00000000000000E+00   0.00000000000000E+00   0.00000000000000E+00  -7.84676556445639E-05
     -3.26220023547799E-15  -7.84676556478261E-05  -4.75939696864099E-15   5.75443507923261E+01   5.75443507923261E+01
      0.00000000000000E+00   0.00000000000000E+00   7.84676556473824E-05   1.75734499005583E-16   7.84676556475581E-05
      4.69543595901981E-15   3.00000000000000E+00   3.00000000000000E+00   0.00000000000000E+00   0.00000000000000E+00
      0.00000000000000E+00   0.00000000000000E+00   0.00000000000000E+00   6.67436577909012E-17
      7.01577180119065E-01
      0.00000000000000E+00   0.00000000000000E+00   0.00000000000000E+00   0.00000000000000E+00  -8.45821989914123E-05
     -2.99854897800769E-15  -8.45821989944108E-05  -5.03128934053509E-15   7.01577180119065E+01   7.01577180119065E+01
      0.00000000000000E+00   0.00000000000000E+00   8.45821989937280E-05   2.13143484213230E-16   8.45821989939412E-05
      5.34161796298371E-15   3.00000000000000E+00   3.00000000000000E+00   0.00000000000000E+00   0.00000000000000E+00
      0.00000000000000E+00   0.00000000000000E+00   0.00000000000000E+00  -3.06700089742077E-16
      7.39669549122198E-01
      0.00000000000000E+00   0.00000000000000E+00   0.00000000000000E+00   0.00000000000000E+00  -8.63771480404857E-05
     -2.92919872237355E-15  -8.63771480434149E-05  -5.11555539276994E-15   7.39669549122197E+01   7.39669549122197E+01
      0.00000000000000E+00   0.00000000000000E+00   8.63771480429710E-05   2.18890563827162E-16   8.63771480431899E-05
      5.53706817076216E-15   3.00000000000000E+00   3.00000000000000E+00   0.00000000000000E+00   0.00000000000000E+00
      0.00000000000000E+00   0.00000000000000E+00   0.00000000000000E+00  -4.17667996107680E-16
      7.98484166863035E-01
      0.00000000000000E+00   0.00000000000000E+00   0.00000000000000E+00   0.00000000000000E+00  -8.90988432499182E-05
     -2.83375111876303E-15  -8.90988432527519E-05  -5.24752678190168E-15   7.98484166863035E+01   7.98484166863035E+01
      0.00000000000000E+00   0.00000000000000E+00   8.90988432520197E-05   2.25598057227896E-16   8.90988432522453E-05
      5.83961971799685E-15   3.00000000000000E+00   3.00000000000000E+00   0.00000000000000E+00   0.00000000000000E+00
      0.00000000000000E+00   0.00000000000000E+00   0.00000000000000E+00  -5.87953860177921E-16
      8.80824631700206E-01
      0.00000000000000E+00   0.00000000000000E+00   0.00000000000000E+00   0.00000000000000E+00  -9.28034779465314E-05
     -2.72494241516820E-15  -9.28034779492563E-05  -5.43580076807311E-15   8.80824631700206E+01   8.80824631700206E+01
      0.00000000000000E+00   0.00000000000000E+00   9.28034779489608E-05   2.32258676898040E-16   9.28034779491931E-05
      6.26515522697939E-15   3.00000000000000E+00   3.00000000000000E+00   0.00000000000000E+00   0.00000000000000E+00
      0.00000000000000E+00   0.00000000000000E+00   0.00000000000000E+00  -8.24886304671647E-16
      9.75680847192628E-01
      0.00000000000000E+00   0.00000000000000E+00   0.00000000000000E+00   0.00000000000000E+00  -9.69094220382447E-05
     -2.63657894664310E-15  -9.69094220408813E-05  -5.65698091686705E-15   9.75680847192628E+01   9.75680847192628E+01
      0.00000000000000E+00   0.00000000000000E+00   9.69094220406387E-05   2.37604493428530E-16   9.69094220408763E-05
      6.75857602286824E-15   3.00000000000000E+00   3.00000000000000E+00   0.00000000000000E+00   0.00000000000000E+00
      0.00000000000000E+00   0.00000000000000E+00   0.00000000000000E+00  -1.09686779995760E-15
      1.00000000000000E+00
      0.00000000000000E+00   0.00000000000000E+00   0.00000000000000E+00   0.00000000000000E+00  -9.79318135612717E-05
     -2.61963588529347E-15  -9.79318135638913E-05  -5.71427713178593E-15   1.00000000000000E+02   1.00000000000000E+02
      0.00000000000000E+00   0.00000000000000E+00   9.79318135636123E-05   2.38705948841113E-16   9.79318135638510E-05
      6.88567522194785E-15   3.00000000000000E+00   3.00000000000000E+00   0.00000000000000E+00   0.00000000000000E+00
      0.00000000000000E+00   0.00000000000000E+00   0.00000000000000E+00  -1.16662478488104E-15
}
