DF-ISE text

Info {
  version   = 1.0
  type      = xyplot
  datasets  = [
    "time"
    "source OuterVoltage" "source InnerVoltage" "source QuasiFermiPotential" "source DisplacementCurrent" "source eCurrent"
    "source hCurrent" "source TotalCurrent" "source Charge" "drain OuterVoltage" "drain InnerVoltage"
    "drain QuasiFermiPotential" "drain DisplacementCurrent" "drain eCurrent" "drain hCurrent" "drain TotalCurrent"
    "drain Charge" "gate OuterVoltage" "gate InnerVoltage" "gate QuasiFermiPotential" "gate DisplacementCurrent"
    "gate eCurrent" "gate hCurrent" "gate TotalCurrent" "gate Charge" ]
  functions = [
    Time
    OuterVoltage InnerVoltage QuasiFermiPotential DisplacementCurrent eCurrent
    hCurrent TotalCurrent Charge OuterVoltage InnerVoltage
    QuasiFermiPotential DisplacementCurrent eCurrent hCurrent TotalCurrent
    Charge OuterVoltage InnerVoltage QuasiFermiPotential DisplacementCurrent
    eCurrent hCurrent TotalCurrent Charge ]
}

Data {
      1.25000000000000E-01
      0.00000000000000E+00   0.00000000000000E+00   0.00000000000000E+00   0.00000000000000E+00  -6.97903941224567E-05
     -2.32294377838483E-15  -6.97903941247797E-05  -9.13863090681711E-15   1.25000000000000E+01   1.25000000000000E+01
      0.00000000000000E+00   0.00000000000000E+00   6.97903941247880E-05   6.76447854644455E-20   6.97903941247880E-05
      1.23469984806467E-15   6.00000000000000E+00   6.00000000000000E+00   0.00000000000000E+00   0.00000000000000E+00
      0.00000000000000E+00   0.00000000000000E+00   0.00000000000000E+00   7.90711143526172E-15
      3.15000000000000E-01
      0.00000000000000E+00   0.00000000000000E+00   0.00000000000000E+00   0.00000000000000E+00  -1.18000875688988E-04
     -1.68310843833805E-15  -1.18000875690671E-04  -9.22582588054332E-15   3.15000000000000E+01   3.15000000000000E+01
      0.00000000000000E+00   0.00000000000000E+00   1.18000875690397E-04   6.80635353320750E-20   1.18000875690397E-04
      2.18945661839052E-15   6.00000000000000E+00   6.00000000000000E+00   0.00000000000000E+00   0.00000000000000E+00
      0.00000000000000E+00   0.00000000000000E+00   0.00000000000000E+00   7.03725441832267E-15
      5.59720000000000E-01
      0.00000000000000E+00   0.00000000000000E+00   0.00000000000000E+00   0.00000000000000E+00  -1.65997215029047E-04
     -1.14510529661840E-15  -1.65997215030192E-04  -9.08590976714749E-15   5.59720000000000E+01   5.59720000000000E+01
      0.00000000000000E+00   0.00000000000000E+00   1.65997215029500E-04   6.83797752045934E-20   1.65997215029500E-04
      3.32224327882841E-15   6.00000000000000E+00   6.00000000000000E+00   0.00000000000000E+00   0.00000000000000E+00
      0.00000000000000E+00   0.00000000000000E+00   0.00000000000000E+00   5.76412069774561E-15
      6.04259040000000E-01
      0.00000000000000E+00   0.00000000000000E+00   0.00000000000000E+00   0.00000000000000E+00  -1.73303223770168E-04
     -1.10837060754548E-15  -1.73303223771277E-04  -9.04635779994545E-15   6.04259040000000E+01   6.04259040000000E+01
      0.00000000000000E+00   0.00000000000000E+00   1.73303223771234E-04   6.84182959353170E-20   1.73303223771234E-04
      3.55228806328604E-15   6.00000000000000E+00   6.00000000000000E+00   0.00000000000000E+00   0.00000000000000E+00
      0.00000000000000E+00   0.00000000000000E+00   0.00000000000000E+00   5.49457648719655E-15
      6.19669547840000E-01
      0.00000000000000E+00   0.00000000000000E+00   0.00000000000000E+00   0.00000000000000E+00  -1.75920920275800E-04
     -1.09811753689214E-15  -1.75920920276898E-04  -9.06539212946759E-15   6.19669547840000E+01   6.19669547840000E+01
      0.00000000000000E+00   0.00000000000000E+00   1.75920920277090E-04   6.84314352117517E-20   1.75920920277090E-04
      3.62919597081483E-15   6.00000000000000E+00   6.00000000000000E+00   0.00000000000000E+00   0.00000000000000E+00
      0.00000000000000E+00   0.00000000000000E+00   0.00000000000000E+00   5.43672460248043E-15
      6.38038873185280E-01
      0.00000000000000E+00   0.00000000000000E+00   0.00000000000000E+00   0.00000000000000E+00  -1.78987891242513E-04
     -1.08694017858861E-15  -1.78987891243600E-04  -9.08964110769502E-15   6.38038873185280E+01   6.38038873185280E+01
      0.00000000000000E+00   0.00000000000000E+00   1.78987891243308E-04   6.84467039366025E-20   1.78987891243308E-04
      3.72188181192088E-15   6.00000000000000E+00   6.00000000000000E+00   0.00000000000000E+00   0.00000000000000E+00
      0.00000000000000E+00   0.00000000000000E+00   0.00000000000000E+00   5.36831503505800E-15
      6.65813293107343E-01
      0.00000000000000E+00   0.00000000000000E+00   0.00000000000000E+00   0.00000000000000E+00  -1.83502413445128E-04
     -1.07281387589713E-15  -1.83502413446200E-04  -9.12838248523463E-15   6.65813293107343E+01   6.65813293107343E+01
      0.00000000000000E+00   0.00000000000000E+00   1.83502413445443E-04   6.84691278481736E-20   1.83502413445443E-04
      3.86439704846225E-15   6.00000000000000E+00   6.00000000000000E+00   0.00000000000000E+00   0.00000000000000E+00
      0.00000000000000E+00   0.00000000000000E+00   0.00000000000000E+00   5.26458486747525E-15
      7.09585778904515E-01
      0.00000000000000E+00   0.00000000000000E+00   0.00000000000000E+00   0.00000000000000E+00  -1.90354753994281E-04
     -1.05717089831310E-15  -1.90354753995339E-04  -9.19934765675541E-15   7.09585778904515E+01   7.09585778904515E+01
      0.00000000000000E+00   0.00000000000000E+00   1.90354753994705E-04   6.85034775634682E-20   1.90354753994705E-04
      4.09365684024567E-15   6.00000000000000E+00   6.00000000000000E+00   0.00000000000000E+00   0.00000000000000E+00
      0.00000000000000E+00   0.00000000000000E+00   0.00000000000000E+00   5.10636395758607E-15
      7.43903407769498E-01
      0.00000000000000E+00   0.00000000000000E+00   0.00000000000000E+00   0.00000000000000E+00  -1.95021325583659E-04
     -1.04692907076387E-15  -1.95021325584706E-04  -9.22305099965426E-15   7.43903407769498E+01   7.43903407769498E+01
      0.00000000000000E+00   0.00000000000000E+00   1.95021325583762E-04   6.85287544304878E-20   1.95021325583762E-04
      4.28846557655476E-15   6.00000000000000E+00   6.00000000000000E+00   0.00000000000000E+00   0.00000000000000E+00
      0.00000000000000E+00   0.00000000000000E+00   0.00000000000000E+00   4.93531657322110E-15
      7.61062222201989E-01
      0.00000000000000E+00   0.00000000000000E+00   0.00000000000000E+00   0.00000000000000E+00  -1.97239688112907E-04
     -1.04293150615695E-15  -1.97239688113950E-04  -9.23757679537290E-15   7.61062222201989E+01   7.61062222201989E+01
      0.00000000000000E+00   0.00000000000000E+00   1.97239688113224E-04   6.85411605613749E-20   1.97239688113225E-04
      4.38772328793958E-15   6.00000000000000E+00   6.00000000000000E+00   0.00000000000000E+00   0.00000000000000E+00
      0.00000000000000E+00   0.00000000000000E+00   0.00000000000000E+00   4.85061415610481E-15
      7.86869079108456E-01
      0.00000000000000E+00   0.00000000000000E+00   0.00000000000000E+00   0.00000000000000E+00  -2.00476716362933E-04
     -1.03969060419287E-15  -2.00476716363972E-04  -9.26481926841707E-15   7.86869079108456E+01   7.86869079108456E+01
      0.00000000000000E+00   0.00000000000000E+00   2.00476716361265E-04   6.85596466521096E-20   2.00476716361266E-04
      4.53819281218234E-15   6.00000000000000E+00   6.00000000000000E+00   0.00000000000000E+00   0.00000000000000E+00
      0.00000000000000E+00   0.00000000000000E+00   0.00000000000000E+00   4.72743217045031E-15
      8.12675936014923E-01
      0.00000000000000E+00   0.00000000000000E+00   0.00000000000000E+00   0.00000000000000E+00  -2.02913202562415E-04
     -1.03921246811821E-15  -2.02913202563454E-04  -9.25325414216102E-15   8.12675936014923E+01   8.12675936014923E+01
      0.00000000000000E+00   0.00000000000000E+00   2.02913202562134E-04   6.85765312767889E-20   2.02913202562134E-04
      4.70562071638314E-15   6.00000000000000E+00   6.00000000000000E+00   0.00000000000000E+00   0.00000000000000E+00
      0.00000000000000E+00   0.00000000000000E+00   0.00000000000000E+00   4.54848021894416E-15
      8.15901793128232E-01
      0.00000000000000E+00   0.00000000000000E+00   0.00000000000000E+00   0.00000000000000E+00  -2.03225224416209E-04
     -1.03916174025308E-15  -2.03225224417248E-04  -9.25340959799185E-15   8.15901793128232E+01   8.15901793128232E+01
      0.00000000000000E+00   0.00000000000000E+00   2.03225224416466E-04   6.85786596380465E-20   2.03225224416466E-04
      4.72628553820805E-15   6.00000000000000E+00   6.00000000000000E+00   0.00000000000000E+00   0.00000000000000E+00
      0.00000000000000E+00   0.00000000000000E+00   0.00000000000000E+00   4.52797611135040E-15
      8.20314765659237E-01
      0.00000000000000E+00   0.00000000000000E+00   0.00000000000000E+00   0.00000000000000E+00  -2.03702416909419E-04
     -1.03904065759381E-15  -2.03702416910459E-04  -9.25704782789921E-15   8.20314765659237E+01   8.20314765659237E+01
      0.00000000000000E+00   0.00000000000000E+00   2.03702416909569E-04   6.85816734927963E-20   2.03702416909569E-04
      4.75338966838472E-15   6.00000000000000E+00   6.00000000000000E+00   0.00000000000000E+00   0.00000000000000E+00
      0.00000000000000E+00   0.00000000000000E+00   0.00000000000000E+00   4.50451777704581E-15
      8.24763041970491E-01
      0.00000000000000E+00   0.00000000000000E+00   0.00000000000000E+00   0.00000000000000E+00  -2.04222407641912E-04
     -1.03885521649651E-15  -2.04222407642951E-04  -9.26338930061989E-15   8.24763041970491E+01   8.24763041970491E+01
      0.00000000000000E+00   0.00000000000000E+00   2.04222407643440E-04   6.85847902344616E-20   2.04222407643440E-04
      4.77980282422646E-15   6.00000000000000E+00   6.00000000000000E+00   0.00000000000000E+00   0.00000000000000E+00
      0.00000000000000E+00   0.00000000000000E+00   0.00000000000000E+00   4.48445402418780E-15
      8.31488835753107E-01
      0.00000000000000E+00   0.00000000000000E+00   0.00000000000000E+00   0.00000000000000E+00  -2.04967213820201E-04
     -1.03846205377834E-15  -2.04967213821240E-04  -9.27095105711184E-15   8.31488835753107E+01   8.31488835753107E+01
      0.00000000000000E+00   0.00000000000000E+00   2.04967213820378E-04   6.85894201340269E-20   2.04967213820378E-04
      4.82061976587060E-15   6.00000000000000E+00   6.00000000000000E+00   0.00000000000000E+00   0.00000000000000E+00
      0.00000000000000E+00   0.00000000000000E+00   0.00000000000000E+00   4.45121060855591E-15
      8.40420689896421E-01
      0.00000000000000E+00   0.00000000000000E+00   0.00000000000000E+00   0.00000000000000E+00  -2.05954190678717E-04
     -1.03770234486542E-15  -2.05954190679755E-04  -9.28177466579218E-15   8.40420689896421E+01   8.40420689896421E+01
      0.00000000000000E+00   0.00000000000000E+00   2.05954190678556E-04   6.85955665915657E-20   2.05954190678556E-04
      4.87477548825760E-15   6.00000000000000E+00   6.00000000000000E+00   0.00000000000000E+00   0.00000000000000E+00
      0.00000000000000E+00   0.00000000000000E+00   0.00000000000000E+00   4.40789422730464E-15
      8.46672987796741E-01
      0.00000000000000E+00   0.00000000000000E+00   0.00000000000000E+00   0.00000000000000E+00  -2.06636379774087E-04
     -1.03702477127410E-15  -2.06636379775124E-04  -9.28942471201119E-15   8.46672987796741E+01   8.46672987796741E+01
      0.00000000000000E+00   0.00000000000000E+00   2.06636379774110E-04   6.85998537028159E-20   2.06636379774110E-04
      4.91281529989695E-15   6.00000000000000E+00   6.00000000000000E+00   0.00000000000000E+00   0.00000000000000E+00
      0.00000000000000E+00   0.00000000000000E+00   0.00000000000000E+00   4.37751549028998E-15
      8.56176480605227E-01
      0.00000000000000E+00   0.00000000000000E+00   0.00000000000000E+00   0.00000000000000E+00  -2.07680699121345E-04
     -1.03582263020985E-15  -2.07680699122380E-04  -9.30235045490910E-15   8.56176480605227E+01   8.56176480605227E+01
      0.00000000000000E+00   0.00000000000000E+00   2.07680699123179E-04   6.86063888348542E-20   2.07680699123179E-04
      4.97037395050132E-15   6.00000000000000E+00   6.00000000000000E+00   0.00000000000000E+00   0.00000000000000E+00
      0.00000000000000E+00   0.00000000000000E+00   0.00000000000000E+00   4.33289951700476E-15
      8.69557398479575E-01
      0.00000000000000E+00   0.00000000000000E+00   0.00000000000000E+00   0.00000000000000E+00  -2.09221947964607E-04
     -1.03392758184853E-15  -2.09221947965641E-04  -9.32614417900928E-15   8.69557398479575E+01   8.69557398479575E+01
      0.00000000000000E+00   0.00000000000000E+00   2.09221947967153E-04   6.86157390465008E-20   2.09221947967153E-04
      5.04965924125297E-15   6.00000000000000E+00   6.00000000000000E+00   0.00000000000000E+00   0.00000000000000E+00
      0.00000000000000E+00   0.00000000000000E+00   0.00000000000000E+00   4.27743255322983E-15
      8.82938316353924E-01
      0.00000000000000E+00   0.00000000000000E+00   0.00000000000000E+00   0.00000000000000E+00  -2.10836236209299E-04
     -1.03188832351485E-15  -2.10836236210331E-04  -9.35553782009916E-15   8.82938316353924E+01   8.82938316353924E+01
      0.00000000000000E+00   0.00000000000000E+00   2.10836236209402E-04   6.86252370025338E-20   2.10836236209402E-04
      5.12714028807109E-15   6.00000000000000E+00   6.00000000000000E+00   0.00000000000000E+00   0.00000000000000E+00
      0.00000000000000E+00   0.00000000000000E+00   0.00000000000000E+00   4.22937058648177E-15
      9.02313885435980E-01
      0.00000000000000E+00   0.00000000000000E+00   0.00000000000000E+00   0.00000000000000E+00  -2.13150521021833E-04
     -1.02856267175485E-15  -2.13150521022862E-04  -9.39925553061269E-15   9.02313885435980E+01   9.02313885435980E+01
      0.00000000000000E+00   0.00000000000000E+00   2.13150521021375E-04   6.86389269761557E-20   2.13150521021375E-04
      5.23954851257394E-15   6.00000000000000E+00   6.00000000000000E+00   0.00000000000000E+00   0.00000000000000E+00
      0.00000000000000E+00   0.00000000000000E+00   0.00000000000000E+00   4.16071725480839E-15
      9.32849782309301E-01
      0.00000000000000E+00   0.00000000000000E+00   0.00000000000000E+00   0.00000000000000E+00  -2.16737244839238E-04
     -1.02274912799147E-15  -2.16737244840261E-04  -9.47072789272432E-15   9.32849782309301E+01   9.32849782309301E+01
      0.00000000000000E+00   0.00000000000000E+00   2.16737244839394E-04   6.86602365521329E-20   2.16737244839394E-04
      5.41738582088900E-15   6.00000000000000E+00   6.00000000000000E+00   0.00000000000000E+00   0.00000000000000E+00
      0.00000000000000E+00   0.00000000000000E+00   0.00000000000000E+00   4.05441160250831E-15
      9.56789925457984E-01
      0.00000000000000E+00   0.00000000000000E+00   0.00000000000000E+00   0.00000000000000E+00  -2.19471726796037E-04
     -1.01888187061657E-15  -2.19471726797056E-04  -9.52792037215844E-15   9.56789925457984E+01   9.56789925457984E+01
      0.00000000000000E+00   0.00000000000000E+00   2.19471726798226E-04   6.86766015914525E-20   2.19471726798226E-04
      5.55801144964437E-15   6.00000000000000E+00   6.00000000000000E+00   0.00000000000000E+00   0.00000000000000E+00
      0.00000000000000E+00   0.00000000000000E+00   0.00000000000000E+00   3.97102521341845E-15
      9.60476707502882E-01
      0.00000000000000E+00   0.00000000000000E+00   0.00000000000000E+00   0.00000000000000E+00  -2.19888312726051E-04
     -1.01835604347760E-15  -2.19888312727070E-04  -9.53690712365828E-15   9.60476707502882E+01   9.60476707502882E+01
      0.00000000000000E+00   0.00000000000000E+00   2.19888312725980E-04   6.86790980253926E-20   2.19888312725980E-04
      5.57973055716373E-15   6.00000000000000E+00   6.00000000000000E+00   0.00000000000000E+00   0.00000000000000E+00
      0.00000000000000E+00   0.00000000000000E+00   0.00000000000000E+00   3.95830008470988E-15
      9.66316570261999E-01
      0.00000000000000E+00   0.00000000000000E+00   0.00000000000000E+00   0.00000000000000E+00  -2.20106810078424E-04
     -1.01748725687567E-15  -2.20106810079442E-04  -9.53029775048126E-15   9.66316570261999E+01   9.66316570261999E+01
      0.00000000000000E+00   0.00000000000000E+00   2.20106810079511E-04   6.86822197597562E-20   2.20106810079511E-04
      5.62363355163718E-15   6.00000000000000E+00   6.00000000000000E+00   0.00000000000000E+00   0.00000000000000E+00
      0.00000000000000E+00   0.00000000000000E+00   0.00000000000000E+00   3.90779545142187E-15
      9.74165345810252E-01
      0.00000000000000E+00   0.00000000000000E+00   0.00000000000000E+00   0.00000000000000E+00  -2.20320995726866E-04
     -1.01631372417440E-15  -2.20320995727883E-04  -9.51882275290643E-15   9.74165345810252E+01   9.74165345810252E+01
      0.00000000000000E+00   0.00000000000000E+00   2.20320995728190E-04   6.86862635234426E-20   2.20320995728190E-04
      5.68423501779568E-15   6.00000000000000E+00   6.00000000000000E+00   0.00000000000000E+00   0.00000000000000E+00
      0.00000000000000E+00   0.00000000000000E+00   0.00000000000000E+00   3.83572865562853E-15
      9.80350180942276E-01
      0.00000000000000E+00   0.00000000000000E+00   0.00000000000000E+00   0.00000000000000E+00  -2.20466250448469E-04
     -1.01537252613662E-15  -2.20466250449484E-04  -9.50961022037505E-15   9.80350180942276E+01   9.80350180942276E+01
      0.00000000000000E+00   0.00000000000000E+00   2.20466250449234E-04   6.86894047555203E-20   2.20466250449234E-04
      5.73239673339079E-15   6.00000000000000E+00   6.00000000000000E+00   0.00000000000000E+00   0.00000000000000E+00
      0.00000000000000E+00   0.00000000000000E+00   0.00000000000000E+00   3.77836177205571E-15
      9.89157386170278E-01
      0.00000000000000E+00   0.00000000000000E+00   0.00000000000000E+00   0.00000000000000E+00  -2.20671320017206E-04
     -1.01402623770698E-15  -2.20671320018220E-04  -9.49768948897160E-15   9.89157386170278E+01   9.89157386170278E+01
      0.00000000000000E+00   0.00000000000000E+00   2.20671320016613E-04   6.86938736771043E-20   2.20671320016613E-04
      5.80087624169234E-15   6.00000000000000E+00   6.00000000000000E+00   0.00000000000000E+00   0.00000000000000E+00
      0.00000000000000E+00   0.00000000000000E+00   0.00000000000000E+00   3.69797191801534E-15
      9.89496217852457E-01
      0.00000000000000E+00   0.00000000000000E+00   0.00000000000000E+00   0.00000000000000E+00  -2.20852515797068E-04
     -1.01399841242342E-15  -2.20852515798082E-04  -9.50512217493916E-15   9.89496217852457E+01   9.89496217852457E+01
      0.00000000000000E+00   0.00000000000000E+00   2.20852515798715E-04   6.86943654725978E-20   2.20852515798715E-04
      5.79982695528020E-15   6.00000000000000E+00   6.00000000000000E+00   0.00000000000000E+00   0.00000000000000E+00
      0.00000000000000E+00   0.00000000000000E+00   0.00000000000000E+00   3.70645581585355E-15
