DF-ISE text

Info {
  version   = 1.0
  type      = xyplot
  datasets  = [
    "time"
    "source OuterVoltage" "source InnerVoltage" "source QuasiFermiPotential" "source DisplacementCurrent" "source eCurrent"
    "source hCurrent" "source TotalCurrent" "source Charge" "drain OuterVoltage" "drain InnerVoltage"
    "drain QuasiFermiPotential" "drain DisplacementCurrent" "drain eCurrent" "drain hCurrent" "drain TotalCurrent"
    "drain Charge" "gate OuterVoltage" "gate InnerVoltage" "gate QuasiFermiPotential" "gate DisplacementCurrent"
    "gate eCurrent" "gate hCurrent" "gate TotalCurrent" "gate Charge" ]
  functions = [
    Time
    OuterVoltage InnerVoltage QuasiFermiPotential DisplacementCurrent eCurrent
    hCurrent TotalCurrent Charge OuterVoltage InnerVoltage
    QuasiFermiPotential DisplacementCurrent eCurrent hCurrent TotalCurrent
    Charge OuterVoltage InnerVoltage QuasiFermiPotential DisplacementCurrent
    eCurrent hCurrent TotalCurrent Charge ]
}

Data {
      0.00000000000000E+00
      0.00000000000000E+00   0.00000000000000E+00   0.00000000000000E+00   0.00000000000000E+00  -9.09884412758813E-11
     -3.53709412109832E-15  -9.09919783700024E-11  -7.95687709262062E-16   1.00000000000000E+00   1.00000000000000E+00
      0.00000000000000E+00   0.00000000000000E+00   9.09919758632518E-11   2.53200010445099E-18   9.09919783952519E-11
      7.89885504948251E-16   0.00000000000000E+00   0.00000000000000E+00   0.00000000000000E+00   0.00000000000000E+00
      0.00000000000000E+00   0.00000000000000E+00   0.00000000000000E+00   6.16679049242296E-18
      1.00000000000000E-02
      0.00000000000000E+00   0.00000000000000E+00   0.00000000000000E+00   0.00000000000000E+00  -1.77635251853077E-10
     -3.52718894365559E-15  -1.77638779042020E-10  -8.00179474982120E-16   1.00000000000000E+00   1.00000000000000E+00
      0.00000000000000E+00   0.00000000000000E+00   1.77638774816772E-10   2.53189249233008E-18   1.77638777348664E-10
      7.87550056473290E-16   2.50000000000000E-02   2.50000000000000E-02   0.00000000000000E+00   0.00000000000000E+00
      0.00000000000000E+00   0.00000000000000E+00   0.00000000000000E+00   1.29962320095531E-17
      2.48000000000000E-02
      0.00000000000000E+00   0.00000000000000E+00   0.00000000000000E+00   0.00000000000000E+00  -4.73709028892198E-10
     -3.51036585305095E-15  -4.73712539258051E-10  -8.06770427215336E-16   1.00000000000000E+00   1.00000000000000E+00
      0.00000000000000E+00   0.00000000000000E+00   4.73712539354855E-10   2.53177600703681E-18   4.73712541886631E-10
      7.84076333018814E-16   6.20000000000000E-02   6.20000000000000E-02   0.00000000000000E+00   0.00000000000000E+00
      0.00000000000000E+00   0.00000000000000E+00   0.00000000000000E+00   2.30642960250677E-17
      4.68026666666667E-02
      0.00000000000000E+00   0.00000000000000E+00   0.00000000000000E+00   0.00000000000000E+00  -1.97412848894883E-09
     -3.48896854747787E-15  -1.97413197791738E-09  -8.16529003112909E-16   1.00000000000000E+00   1.00000000000000E+00
      0.00000000000000E+00   0.00000000000000E+00   1.97413197512517E-09   2.53186827278474E-18   1.97413197765703E-09
      7.78870425602602E-16   1.17006666666667E-01   1.17006666666667E-01   0.00000000000000E+00   0.00000000000000E+00
      0.00000000000000E+00   0.00000000000000E+00   0.00000000000000E+00   3.80340356192308E-17
      7.95132977777778E-02
      0.00000000000000E+00   0.00000000000000E+00   0.00000000000000E+00   0.00000000000000E+00  -1.43065522101814E-08
     -3.47093865078031E-15  -1.43065556811201E-08  -8.31501453163340E-16   1.00000000000000E+00   1.00000000000000E+00
      0.00000000000000E+00   0.00000000000000E+00   1.43065556761898E-08   2.53451173158297E-18   1.43065556787243E-08
      7.70979871916517E-16   1.98783244444445E-01   1.98783244444445E-01   0.00000000000000E+00   0.00000000000000E+00
      0.00000000000000E+00   0.00000000000000E+00   0.00000000000000E+00   6.09054187750342E-17
      1.27925031822222E-01
      0.00000000000000E+00   0.00000000000000E+00   0.00000000000000E+00   0.00000000000000E+00  -1.30927761643787E-07
     -3.46290098167839E-15  -1.30927765106688E-07  -8.57948244920916E-16   1.00000000000000E+00   1.00000000000000E+00
      0.00000000000000E+00   0.00000000000000E+00   1.30927765101416E-07   2.56248606219298E-18   1.30927765103978E-07
      7.58217262997422E-16   3.19812579555556E-01   3.19812579555556E-01   0.00000000000000E+00   0.00000000000000E+00
      0.00000000000000E+00   0.00000000000000E+00   0.00000000000000E+00   1.00128904159325E-16
      1.77925031822222E-01
      0.00000000000000E+00   0.00000000000000E+00   0.00000000000000E+00   0.00000000000000E+00  -4.78418176881399E-07
     -3.46100909754340E-15  -4.78418180342408E-07  -8.92374863160618E-16   1.00000000000000E+00   1.00000000000000E+00
      0.00000000000000E+00   0.00000000000000E+00   4.78418180339395E-07   2.64373703005778E-18   4.78418180342039E-07
      7.41952502583341E-16   4.44812579555556E-01   4.44812579555556E-01   0.00000000000000E+00   0.00000000000000E+00
      0.00000000000000E+00   0.00000000000000E+00   0.00000000000000E+00   1.50836873982944E-16
      2.27925031822222E-01
      0.00000000000000E+00   0.00000000000000E+00   0.00000000000000E+00   0.00000000000000E+00  -1.02316547773663E-06
     -3.45638297529097E-15  -1.02316548119301E-06  -9.30955139746584E-16   1.00000000000000E+00   1.00000000000000E+00
      0.00000000000000E+00   0.00000000000000E+00   1.02316548118837E-06   2.76160835597945E-18   1.02316548119113E-06
      7.20893513002584E-16   5.69812579555556E-01   5.69812579555556E-01   0.00000000000000E+00   0.00000000000000E+00
      0.00000000000000E+00   0.00000000000000E+00   0.00000000000000E+00   2.10492259580360E-16
      2.77925031822222E-01
      0.00000000000000E+00   0.00000000000000E+00   0.00000000000000E+00   0.00000000000000E+00  -1.68853130254835E-06
     -3.44749685694823E-15  -1.68853130599585E-06  -9.71666369786078E-16   1.00000000000000E+00   1.00000000000000E+00
      0.00000000000000E+00   0.00000000000000E+00   1.68853130599245E-06   2.88986041653772E-18   1.68853130599534E-06
      6.92669340332366E-16   6.94812579555556E-01   6.94812579555556E-01   0.00000000000000E+00   0.00000000000000E+00
      0.00000000000000E+00   0.00000000000000E+00   0.00000000000000E+00   2.79440021077515E-16
      3.27925031822222E-01
      0.00000000000000E+00   0.00000000000000E+00   0.00000000000000E+00   0.00000000000000E+00  -2.41055005158277E-06
     -3.43467624465430E-15  -2.41055005501745E-06  -1.01507698159050E-15   1.00000000000000E+00   1.00000000000000E+00
      0.00000000000000E+00   0.00000000000000E+00   2.41055005501635E-06   3.01085946172015E-18   2.41055005501936E-06
      6.58578016737610E-16   8.19812579555556E-01   8.19812579555556E-01   0.00000000000000E+00   0.00000000000000E+00
      0.00000000000000E+00   0.00000000000000E+00   0.00000000000000E+00   3.56950362501495E-16
      3.77925031822222E-01
      0.00000000000000E+00   0.00000000000000E+00   0.00000000000000E+00   0.00000000000000E+00  -3.14280270364655E-06
     -3.41845938226677E-15  -3.14280270706501E-06  -1.06484700828845E-15   1.00000000000000E+00   1.00000000000000E+00
      0.00000000000000E+00   0.00000000000000E+00   3.14280270705909E-06   3.11659683164768E-18   3.14280270706220E-06
      6.25670783848672E-16   9.44812579555556E-01   9.44812579555556E-01   0.00000000000000E+00   0.00000000000000E+00
      0.00000000000000E+00   0.00000000000000E+00   0.00000000000000E+00   4.39633834466705E-16
      4.27925031822222E-01
      0.00000000000000E+00   0.00000000000000E+00   0.00000000000000E+00   0.00000000000000E+00  -3.86870185590533E-06
     -3.39814323869269E-15  -3.86870185930347E-06  -1.12845573432902E-15   1.00000000000000E+00   1.00000000000000E+00
      0.00000000000000E+00   0.00000000000000E+00   3.86870185930171E-06   3.20718192531506E-18   3.86870185930491E-06
      5.96864807259964E-16   1.06981257955556E+00   1.06981257955556E+00   0.00000000000000E+00   0.00000000000000E+00
      0.00000000000000E+00   0.00000000000000E+00   0.00000000000000E+00   5.32053693199315E-16
      4.77925031822222E-01
      0.00000000000000E+00   0.00000000000000E+00   0.00000000000000E+00   0.00000000000000E+00  -4.58923134296534E-06
     -3.37332499033180E-15  -4.58923134633867E-06  -1.21446315166017E-15   1.00000000000000E+00   1.00000000000000E+00
      0.00000000000000E+00   0.00000000000000E+00   4.58923134633744E-06   3.28556135390138E-18   4.58923134634072E-06
      5.71593701287791E-16   1.19481257955556E+00   1.19481257955556E+00   0.00000000000000E+00   0.00000000000000E+00
      0.00000000000000E+00   0.00000000000000E+00   0.00000000000000E+00   6.43336862192234E-16
      5.27925031822222E-01
      0.00000000000000E+00   0.00000000000000E+00   0.00000000000000E+00   0.00000000000000E+00  -5.32807728920949E-06
     -3.34474963516350E-15  -5.32807729255424E-06  -1.33743143702510E-15   1.00000000000000E+00   1.00000000000000E+00
      0.00000000000000E+00   0.00000000000000E+00   5.32807729254894E-06   3.35626799650958E-18   5.32807729255230E-06
      5.48161612780185E-16   1.31981257955556E+00   1.31981257955556E+00   0.00000000000000E+00   0.00000000000000E+00
      0.00000000000000E+00   0.00000000000000E+00   0.00000000000000E+00   7.89741739352707E-16
      5.77925031822222E-01
      0.00000000000000E+00   0.00000000000000E+00   0.00000000000000E+00   0.00000000000000E+00  -6.06927755729357E-06
     -3.31600371406142E-15  -6.06927756060958E-06  -1.51210037890766E-15   1.00000000000000E+00   1.00000000000000E+00
      0.00000000000000E+00   0.00000000000000E+00   6.06927756060642E-06   3.41929096782122E-18   6.06927756060984E-06
      5.23312487429416E-16   1.44481257955556E+00   1.44481257955556E+00   0.00000000000000E+00   0.00000000000000E+00
      0.00000000000000E+00   0.00000000000000E+00   0.00000000000000E+00   9.89264717626834E-16
      6.27925031822222E-01
      0.00000000000000E+00   0.00000000000000E+00   0.00000000000000E+00   0.00000000000000E+00  -6.69984713489161E-06
     -3.29168674054329E-15  -6.69984713818330E-06  -1.73120721831405E-15   1.00000000000000E+00   1.00000000000000E+00
      0.00000000000000E+00   0.00000000000000E+00   6.69984713817583E-06   3.46781083435947E-18   6.69984713817929E-06
      4.89688173448006E-16   1.56981257955556E+00   1.56981257955556E+00   0.00000000000000E+00   0.00000000000000E+00
      0.00000000000000E+00   0.00000000000000E+00   0.00000000000000E+00   1.24200184602684E-15
      6.77925031822222E-01
      0.00000000000000E+00   0.00000000000000E+00   0.00000000000000E+00   0.00000000000000E+00  -7.17409612619891E-06
     -3.27280331686668E-15  -7.17409612947171E-06  -1.96954187097709E-15   1.00000000000000E+00   1.00000000000000E+00
      0.00000000000000E+00   0.00000000000000E+00   7.17409612946711E-06   3.50167878086802E-18   7.17409612947061E-06
      4.53150783366945E-16   1.69481257955556E+00   1.69481257955556E+00   0.00000000000000E+00   0.00000000000000E+00
      0.00000000000000E+00   0.00000000000000E+00   0.00000000000000E+00   1.51688071418390E-15
      7.27925031822222E-01
      0.00000000000000E+00   0.00000000000000E+00   0.00000000000000E+00   0.00000000000000E+00  -7.53711112066495E-06
     -3.25801992958334E-15  -7.53711112392297E-06  -2.21572483496732E-15   1.00000000000000E+00   1.00000000000000E+00
      0.00000000000000E+00   0.00000000000000E+00   7.53711112388828E-06   3.52625074351891E-18   7.53711112389180E-06
      4.17988174736491E-16   1.81981257955556E+00   1.81981257955556E+00   0.00000000000000E+00   0.00000000000000E+00
      0.00000000000000E+00   0.00000000000000E+00   0.00000000000000E+00   1.79823358296663E-15
      7.77925031822222E-01
      0.00000000000000E+00   0.00000000000000E+00   0.00000000000000E+00   0.00000000000000E+00  -7.82741221044628E-06
     -3.24607149822852E-15  -7.82741221369235E-06  -2.46651893640864E-15   1.00000000000000E+00   1.00000000000000E+00
      0.00000000000000E+00   0.00000000000000E+00   7.82741221363846E-06   3.54512109034874E-18   7.82741221364200E-06
      3.84571805907315E-16   1.94481257955556E+00   1.94481257955556E+00   0.00000000000000E+00   0.00000000000000E+00
      0.00000000000000E+00   0.00000000000000E+00   0.00000000000000E+00   2.08245162543128E-15
      7.90425031822222E-01
      0.00000000000000E+00   0.00000000000000E+00   0.00000000000000E+00   0.00000000000000E+00  -7.89144049659812E-06
     -3.24342892180834E-15  -7.89144049984155E-06  -2.52963114957165E-15   1.00000000000000E+00   1.00000000000000E+00
      0.00000000000000E+00   0.00000000000000E+00   7.89144049980765E-06   3.54919345250152E-18   7.89144049981120E-06
      3.76482591421595E-16   1.97606257955556E+00   1.97606257955556E+00   0.00000000000000E+00   0.00000000000000E+00
      0.00000000000000E+00   0.00000000000000E+00   0.00000000000000E+00   2.15365497531094E-15
      8.02925031822222E-01
      0.00000000000000E+00   0.00000000000000E+00   0.00000000000000E+00   0.00000000000000E+00  -7.95277288552807E-06
     -3.24089638229982E-15  -7.95277288876897E-06  -2.59304254340242E-15   1.00000000000000E+00   1.00000000000000E+00
      0.00000000000000E+00   0.00000000000000E+00   7.95277288873586E-06   3.55306518673473E-18   7.95277288873942E-06
      3.68470811430702E-16   2.00731257955556E+00   2.00731257955556E+00   0.00000000000000E+00   0.00000000000000E+00
      0.00000000000000E+00   0.00000000000000E+00   0.00000000000000E+00   2.22508008352307E-15
      8.21258365155556E-01
      0.00000000000000E+00   0.00000000000000E+00   0.00000000000000E+00   0.00000000000000E+00  -8.03818171721308E-06
     -3.23736959455202E-15  -8.03818172045045E-06  -2.68642357647973E-15   1.00000000000000E+00   1.00000000000000E+00
      0.00000000000000E+00   0.00000000000000E+00   8.03818172043473E-06   3.55840898799783E-18   8.03818172043829E-06
      3.56869311255021E-16   2.05314591288889E+00   2.05314591288889E+00   0.00000000000000E+00   0.00000000000000E+00
      0.00000000000000E+00   0.00000000000000E+00   0.00000000000000E+00   2.33006547274419E-15
      8.44236142933333E-01
      0.00000000000000E+00   0.00000000000000E+00   0.00000000000000E+00   0.00000000000000E+00  -8.13797502551167E-06
     -3.23325123931327E-15  -8.13797502874492E-06  -2.80349976584992E-15   1.00000000000000E+00   1.00000000000000E+00
      0.00000000000000E+00   0.00000000000000E+00   8.13797502872299E-06   3.56458303252787E-18   8.13797502872656E-06
      3.42626700819742E-16   2.11059035733333E+00   2.11059035733333E+00   0.00000000000000E+00   0.00000000000000E+00
      0.00000000000000E+00   0.00000000000000E+00   0.00000000000000E+00   2.46138787377452E-15
      8.78549624414815E-01
      0.00000000000000E+00   0.00000000000000E+00   0.00000000000000E+00   0.00000000000000E+00  -8.27513548735417E-06
     -3.22759956530349E-15  -8.27513549058177E-06  -2.97962025931925E-15   1.00000000000000E+00   1.00000000000000E+00
      0.00000000000000E+00   0.00000000000000E+00   8.27513549043750E-06   3.57294914259700E-18   8.27513549044107E-06
      3.21777790796203E-16   2.19637406103704E+00   2.19637406103704E+00   0.00000000000000E+00   0.00000000000000E+00
      0.00000000000000E+00   0.00000000000000E+00   0.00000000000000E+00   2.65836271557009E-15
      9.28549624414815E-01
      0.00000000000000E+00   0.00000000000000E+00   0.00000000000000E+00   0.00000000000000E+00  -8.45358536738966E-06
     -3.22027498511614E-15  -8.45358537060993E-06  -3.23775899821439E-15   1.00000000000000E+00   1.00000000000000E+00
      0.00000000000000E+00   0.00000000000000E+00   8.45358537058496E-06   3.58362817486004E-18   8.45358537058854E-06
      2.92301871444444E-16   2.32137406103704E+00   2.32137406103704E+00   0.00000000000000E+00   0.00000000000000E+00
      0.00000000000000E+00   0.00000000000000E+00   0.00000000000000E+00   2.94598540708320E-15
      9.78549624414815E-01
      0.00000000000000E+00   0.00000000000000E+00   0.00000000000000E+00   0.00000000000000E+00  -8.61121411900687E-06
     -3.21384489814600E-15  -8.61121412222071E-06  -3.49592040924756E-15   1.00000000000000E+00   1.00000000000000E+00
      0.00000000000000E+00   0.00000000000000E+00   8.61121412218161E-06   3.59286987377711E-18   8.61121412218520E-06
      2.63911926946945E-16   2.44637406103704E+00   2.44637406103704E+00   0.00000000000000E+00   0.00000000000000E+00
      0.00000000000000E+00   0.00000000000000E+00   0.00000000000000E+00   3.23254489795550E-15
      1.00000000000000E+00
      0.00000000000000E+00   0.00000000000000E+00   0.00000000000000E+00   0.00000000000000E+00  -8.67375927688802E-06
     -3.21130612892976E-15  -8.67375928009932E-06  -3.60683584420796E-15   1.00000000000000E+00   1.00000000000000E+00
      0.00000000000000E+00   0.00000000000000E+00   8.67375928002366E-06   3.59648813667747E-18   8.67375928002726E-06
      2.52008134911937E-16   2.50000000000000E+00   2.50000000000000E+00   0.00000000000000E+00   0.00000000000000E+00
      0.00000000000000E+00   0.00000000000000E+00   0.00000000000000E+00   3.35536764910983E-15
}
